
                                 *****************
                                 * O   R   C   A *
                                 *****************

                                            #,                                       
                                            ###                                      
                                            ####                                     
                                            #####                                    
                                            ######                                   
                                           ########,                                 
                                     ,,################,,,,,                         
                               ,,#################################,,                 
                          ,,##########################################,,             
                       ,#########################################, ''#####,          
                    ,#############################################,,   '####,        
                  ,##################################################,,,,####,       
                ,###########''''           ''''###############################       
              ,#####''   ,,,,##########,,,,          '''####'''          '####       
            ,##' ,,,,###########################,,,                        '##       
           ' ,,###''''                  '''############,,,                           
         ,,##''                                '''############,,,,        ,,,,,,###''
      ,#''                                            '''#######################'''  
     '                                                          ''''####''''         
             ,#######,   #######,   ,#######,      ##                                
            ,#'     '#,  ##    ##  ,#'     '#,    #''#        ,####,    ,#,          
            ##       ##  ##   ,#'  ##            #'  '#       #'       ,# #          
            ##       ##  #######   ##           ,######,      #####,      #          
            '#,     ,#'  ##    ##  '#,     ,#' ,#      #,     #,   #      #          
             '#######'   ##     ##  '#######'  #'      '#     '####' #    #          



                #########################################################
                #                        -***-                          #
                #          Department of theory and spectroscopy        #
                #                                                       #
                #                      Frank Neese                      #
                #                                                       #
                #     Directorship, Architecture, Infrastructure        #
                #                    SHARK, DRIVERS                     #
                #        Core code/Algorithms in most modules           #
                #                                                       #
                #        Max Planck Institute fuer Kohlenforschung      #
                #                Kaiser Wilhelm Platz 1                 #
                #                 D-45470 Muelheim/Ruhr                 #
                #                      Germany                          #
                #                                                       #
                #                  All rights reserved                  #
                #                        -***-                          #
                #########################################################


                         Program Version 6.1.1  -  RELEASE   -


 With contributions from (in alphabetic order):
[Max-Planck-Institut fuer Kohlenforschung]                               
  Daniel Aravena         : Magnetic Suceptibility                        
  Michael Atanasov       : Ab Initio Ligand Field Theory (pilot matlab implementation)
  Alexander A. Auer      : GIAO ZORA, VPT2 properties, NMR spectrum      
  Ute Becker             : All parallelization in ORCA, NUMFREQ, NUMCALC 
  Giovanni Bistoni       : ED, misc. LED, open-shell LED, HFLD           
  Dmytro Bykov           : pre 5.0 version of the SCF Hessian            
  Marcos Casanova-Páez   : Triplet and SCS-CIS(D). UHF-(DLPNO)-IP/EA/STEOM-CCSD. UHF-CVS-IP/STEOM-CCSD   
  Vijay G. Chilkuri      : MRCI spin determinant printing, contributions to CSF-ICE 
  Pauline Colinet        : FMM embedding                                 
  Dipayan Datta          : RHF DLPNO-CCSD density                        
  Achintya Kumar Dutta   : EOM-CC, STEOM-CC                              
  Nicolas Foglia         : Exact transition moments, OPA infrastructure, MCD improvements    
  Dmitry Ganyushin       : Spin-Orbit,Spin-Spin,Magnetic field MRCI      
  Miquel Garcia-Rates    : C-PCM and meta-GGA Hessian, CCSD/C-PCM, Gaussian charge scheme 
  Tiago L. C. Gouveia    : GS-ROHF, GS-ROCIS                             
  Yang Guo               : DLPNO-NEVPT2, F12-NEVPT2, CIM, IAO-localization        
  Andreas Hansen         : Spin unrestricted coupled pair/coupled cluster methods 
  Ingolf Harden          : AUTO-CI MPn and infrastructure                
  Benjamin Helmich-Paris : MC-RPA, TRAH-(SCF,CASSCF), AVAS, COSX integrals, SCF dyn. polar., MC-PDFT, srDFT 
  Lee Huntington         : MR-EOM, pCC                                   
  Robert Izsak           : Overlap fitted RIJCOSX, COSX-SCS-MP3, EOM     
  Riya Kayal             : Wick's Theorem for AUTO-CI, AUTO-CI UHF-CCSDT 
  Emily Kempfer          : AUTO-CI RHF CISDT and CCSDT, approximate NEVPT4
  Christian Kollmar      : KDIIS, OOCD, Brueckner-CCSD(T), CCSD density, CASPT2, CASPT2-K, improved NEVPT2 
  Axel Koslowski         : Symmetry handling                             
  Simone Kossmann        : meta-GGA functionals, TD-DFT gradient, OOMP2, (MP2 Hessian; deprecated post 5.0) 
  Lucas Lang             : DCDCAS, Hyperfine gauge corrections, ICE-SOC+SSC
  Marvin Lechner         : AUTO-CI (C++ implementation), FIC-MRCC        
  Spencer Leger          : CASSCF response                               
  Dagmar Lenk            : GEPOL surface, SMD, ORCA-2-JSON               
  Dimitrios Liakos       : Extrapolation schemes; Compound Job, Property file
  Dimitrios Manganas     : Further ROCIS development; embedding schemes. LFT, Crystal Embedding 
  Dimitrios Pantazis     : SARC Basis sets                               
  Anastasios Papadopoulos: AUTO-CI, single reference methods and gradients 
  Taras Petrenko         : pre 6.0 DFT Hessian and TD-DFT gradient,  ECA, NRVS 
  Petra Pikulova         : Analytic Raman intensities                    
  Peter Pinski           : DLPNO-MP2, DLPNO-MP2 Gradient                 
  Shashank Vittal Rao    : ES-AILFT, MagRelax                            
  Christoph Reimann      : Effective Core Potentials                     
  Marius Retegan         : Local ZFS, SOC                                
  Christoph Riplinger    : Optimizer, TS searches, QM/MM, DLPNO-CCSD(T), (RO)-DLPNO pert. Triples 
  Michael Roemelt        : Original ROCIS implementation, recursive CI coupling coefficients
  Masaaki Saitow         : Open-shell DLPNO-CCSD energy and density      
  Barbara Sandhoefer     : DKH picture change effects                    
  Yorick L. A. Schmerwitz: GMF and freeze-and-release deltaSCF, NEB S-IDPP initial path                    
  Kantharuban Sivalingam : CASSCF convergence/infrastructure, NEVPT2, NEVPT3, NEVPT4(SD), FIC-MRCI and CEPA variants
  Bernardo de Souza      : ESD, SOC TD-DFT                               
  Georgi L. Stoychev     : AutoAux, RI-MP2 NMR, DLPNO-MP2 response, X2C  
  Van Anh Tran           : RI-MP2 g-tensors                              
  Willem Van den Heuvel  : Paramagnetic NMR                              
  Zikuan Wang            : NOTCH, Electric field optimization            
  Frank Wennmohs         : Technical directorship and infrastructure     
  Hang Xu                : AUTO-CI-Response properties                   
                                                                         
[FACCTs GmbH]                                                            
  Markus Bursch, Nicolas Foglia, Miquel Garcia-Rates, Ingolf Harden, Hagen Neugebauer, Anastasios Papadopoulos, 
  Christoph Riplinger, Bernardo de Souza, Georgi L. Stoychev                                                    
                                                                 
  APM, various basis sets, CI-OPT, improved COSX, DLPNO-Multilevel,           
  DOCKER, DRACO, updates on ESD, Fragmentator, GOAT, IRC, LR-CPCM, L-BFGS, MBIS, meta-GGA TD-DFT gradient, ML-optimized integration grids, 
  MM, NACMEs, nearIR, NEB, NEB-TS, NL-DFT gradient (VV10), 2- and 3-layer-ONIOM, interface openCOSMO-RS, QMMM,   
  Crystal-QMMM, RESP, rigid body optimization, SF, symmetry and pop. for TD-DFT, various functionals, SOLVATOR                                   
                                                                         
[Other institutions]                                                     
  V. Asgeirsson          : NEB                                           
  Christoph Bannwarth    : sTDA-DFT, sTD-DFT, PBEh-3c, B97-3c, D3        
  Giovanni Bistoni       : ETS/NOCV, ADLD/ADEX, COVALED                  
  Martin Brehm           : Molecular dynamics                            
  Ronald Cardenas        : ETS/NOCV                                      
  Martina Colucci        : COVALED                                       
  Sebastian Ehlert       : rSCAN, r2SCAN, r2SCAN-3c, D4, dhf basis sets  
  Marvin Friede          : D4 for Fr, Ra, Ac-Lr                          
  Lars Goerigk           : TD-DFT with DH, B97 family of functionals     
  Stefan Grimme          : VdW corrections, initial TS optimization, DFT functionals, gCP, sTDA/sTD-DF 
  Waldemar Hujo          : DFT-NL                                        
  H. Jonsson             : NEB                                           
  Holger Kruse           : gCP                                           
  Marcel Mueller         : wB97X-3c, vDZP basis set                      
  Hagen Neugebauer       : wr2SCAN, Native XTB                           
  Gianluca Regni         : ADLD/ADEX                                     
  Tobias Risthaus        : pre 6.0 range-separated hybrid DFT and stability analysis
  Lukas Wittmann         : regularized MP2, r2SCAN double-hybrids, wr2SCAN        
                                                                         
We gratefully acknowledge several colleagues who have allowed us to      
interface, adapt or use parts of their codes:                            
  Ed Valeev, F. Pavosevic, A. Kumar             : LibInt (2-el integral package), F12 methods 
  Garnet Chan, S. Sharma, J. Yang, R. Olivares  : DMRG                   
  Ulf Ekstrom                                   : XCFun DFT Library      
  Mihaly Kallay                                 : mrcc  (arbitrary order and MRCC methods)
  Frank Weinhold                                : gennbo (NPA and NBO analysis)           
  Simon Mueller                                 : openCOSMO-RS                            
  Christopher J. Cramer and Donald G. Truhlar   : smd solvation model                     
  S Lehtola, MJT Oliveira, MAL Marques          : LibXC Library                           
  Liviu Ungur et al                             : ANISO software                          


 Your calculation uses the libint2 library for the computation of 2-el integrals
 For citations please refer to: http://libint.valeyev.net

 Your ORCA version has been built with support for libXC version: 7.0.0
 For citations please refer to: https://libxc.gitlab.io

 This ORCA versions uses:
   CBLAS   interface :  Fast vector & matrix operations
   LAPACKE interface :  Fast linear algebra routines
   Shared memory     :  Shared parallel matrices


  ***********************************
  * Starting time: Tue Jun  2 09:19:11 2026
  * Host name:     AHMET
  * Process ID:    37612
  * Working dir.:  D:\Makaleler\coumarin-logp-working-source\dft\molecules\CMR_GOLD_029
  ***********************************

NOTE: MaxCore=3000 MB was set to SCF,MP2,MDCI,CIPSI,MRCI,RASCI and CIS
      => If you want to overwrite this, your respective input block should be placed after the MaxCore statement


***************************************
The coordinates will be read from file: input/CMR_GOLD_029_start.xyz
***************************************


Your calculation utilizes the atom-pairwise dispersion correction
with the Becke-Johnson damping scheme (D3BJ)


================================================================================

----- Orbital basis set information -----
Your calculation utilizes the basis: def2-SVP
   F. Weigend and R. Ahlrichs, Phys. Chem. Chem. Phys. 7, 3297 (2005).

----- AuxJ basis set information -----
Your calculation utilizes the auxiliary basis: def2/J
   H-Rn: F. Weigend, Phys. Chem. Chem. Phys. 8, 1057 (2006).
   Fr-Lr: K. Eichkorn, F. Weigend, O. Treutler, R. Ahlrichs; Theor. Chem. Acc. 97, 119 (1997).

================================================================================
                                        WARNINGS
                       Please study these warnings very carefully!
================================================================================


WARNING: Geometry Optimization
  ===> : Switching off AutoStart
         For restart on a previous wavefunction, please use MOREAD

================================================================================
                                       INPUT FILE
================================================================================
NAME = D:\Makaleler\coumarin-logp-working-source\dft\molecules\CMR_GOLD_029\input\CMR_GOLD_029_optfreq.inp
|  1> ! B3LYP D3BJ def2-SVP TightSCF RIJCOSX def2/J CPCM(Water) Opt Freq

|  2> 

|  3> %pal

|  4>   nprocs 8

|  5> end

|  6> 

|  7> %maxcore 3000

|  8> 

|  9> %scf

| 10>   MaxIter 500

| 11> end

| 12> 

| 13> %output

| 14>   Print[P_Mulliken] 1

| 15>   Print[P_Loewdin] 1

| 16> end

| 17> 

| 18> * xyzfile 0 1 input/CMR_GOLD_029_start.xyz

| 19> 
| 20>                          ****END OF INPUT****
================================================================================

                       *****************************
                       * Geometry Optimization Run *
                       *****************************

Geometry optimization settings:
Update method            Update   .... BFGS
Choice of coordinates    CoordSys .... (2022) Redundant Internals
Initial Hessian          InHess   .... Almloef's Model
Max. no of cycles        MaxIter  .... 132

Convergence Tolerances:
Energy Change            TolE     ....  5.0000e-06 Eh
Max. Gradient            TolMAXG  ....  3.0000e-04 Eh/bohr
RMS Gradient             TolRMSG  ....  1.0000e-04 Eh/bohr
Max. Displacement        TolMAXD  ....  4.0000e-03 bohr
RMS Displacement         TolRMSD  ....  2.0000e-03 bohr
Strict Convergence                .... False

------------------------------------------------------------------------------
                        ORCA OPTIMIZATION COORDINATE SETUP
------------------------------------------------------------------------------

The optimization will be done in redundant internal coordinates (2022)
Making redundant internal coordinates   ...  (2022 redundants) done
Evaluating the initial hessian          ...  (Almloef) done
Evaluating the coordinates              ...  done
Calculating the B-matrix                .... done
Calculating the G-matrix                .... done
The number of degrees of freedom        ....  234

    -----------------------------------------------------------------
                    Redundant Internal Coordinates


    -----------------------------------------------------------------
         Definition                    Initial Value    Approx d2E/dq
    -----------------------------------------------------------------
      1. B(C   1,O   0)                  1.2255         1.024064   
      2. B(O   2,C   1)                  1.3836         0.572888   
      3. B(C   3,O   2)                  1.4097         0.520537   
      4. B(C   4,C   3)                  1.3962         0.610700   
      5. B(C   5,C   4)                  1.3980         0.606616   
      6. B(C   6,C   5)                  1.4012         0.599580   
      7. B(C   7,C   6)                  1.3972         0.608472   
      8. B(O   8,C   7)                  1.3675         0.607827   
      9. B(C   9,O   8)                  1.4348         0.474717   
     10. B(C  10,C   9)                  1.5348         0.367021   
     11. B(O  11,C  10)                  1.4350         0.474324   
     12. B(C  12,C  10)                  1.5325         0.370127   
     13. B(N  13,C  12)                  1.4497         0.449411   
     14. B(C  14,N  13)                  1.3678         0.607149   
     15. B(N  15,C  14)                  1.3131         0.742352   
     16. B(C  16,N  15)                  1.3727         0.596398   
     17. B(C  17,C  16)                  1.3944         0.614845   
     18. B(C  17,N  13)                  1.3748         0.591732   
     19. B(C  18,C  17)                  1.4008         0.600414   
     20. B(C  19,C  18)                  1.4000         0.602211   
     21. B(C  20,C  19)                  1.3957         0.611812   
     22. B(C  21,C  20)                  1.3997         0.602991   
     23. B(C  21,C  16)                  1.4026         0.596617   
     24. B(C  22,C   7)                  1.3914         0.621683   
     25. B(C  22,C   3)                  1.3987         0.605085   
     26. B(C  23,C   4)                  1.4690         0.467495   
     27. B(C  24,C  23)                  1.5001         0.416943   
     28. B(C  25,C  23)                  1.3412         0.747584   
     29. B(C  25,C   1)                  1.4710         0.464070   
     30. B(H  26,C   5)                  1.0867         0.364468   
     31. B(H  27,C   6)                  1.0880         0.362736   
     32. B(H  28,C   9)                  1.0959         0.352406   
     33. B(H  29,C   9)                  1.0960         0.352192   
     34. B(H  30,C  10)                  1.0967         0.351407   
     35. B(H  31,O   8)                  2.3566         0.010000   
     36. B(H  31,O  11)                  0.9773         0.487880   
     37. B(H  32,C  12)                  1.0968         0.351231   
     38. B(H  33,C  12)                  1.0951         0.353460   
     39. B(H  34,C  14)                  1.0832         0.369275   
     40. B(H  35,C  18)                  1.0842         0.367916   
     41. B(H  36,C  19)                  1.0884         0.362186   
     42. B(H  37,C  20)                  1.0875         0.363442   
     43. B(H  38,C  21)                  1.0843         0.367689   
     44. B(H  39,H  36)                  4.9998         0.010000   
     45. B(H  39,C  22)                  1.0847         0.367186   
     46. B(H  40,C  24)                  1.0952         0.353285   
     47. B(H  41,C  24)                  1.0958         0.352503   
     48. B(H  42,C  24)                  1.0952         0.353280   
     49. B(H  43,C  25)                  1.0843         0.367716   
     50. A(O   0,C   1,C  25)          120.7117         0.448059   
     51. A(O   2,C   1,C  25)          116.8387         0.403826   
     52. A(O   0,C   1,O   2)          122.4495         0.462494   
     53. A(C   1,O   2,C   3)          121.1409         0.409456   
     54. A(C   4,C   3,C  22)          122.6052         0.430998   
     55. A(O   2,C   3,C  22)          116.0596         0.416139   
     56. A(O   2,C   3,C   4)          121.3351         0.416824   
     57. A(C   3,C   4,C   5)          117.4667         0.431193   
     58. A(C   5,C   4,C  23)          123.7003         0.411110   
     59. A(C   3,C   4,C  23)          118.8329         0.411600   
     60. A(C   4,C   5,C   6)          120.5596         0.429773   
     61. A(C   6,C   5,H  26)          118.0729         0.351632   
     62. A(C   4,C   5,H  26)          121.3675         0.352326   
     63. A(C   7,C   6,H  27)          119.6502         0.352224   
     64. A(C   5,C   6,H  27)          119.3464         0.351349   
     65. A(C   5,C   6,C   7)          121.0034         0.430009   
     66. A(C   6,C   7,C  22)          119.0887         0.432814   
     67. A(C   6,C   7,O   8)          114.7395         0.428250   
     68. A(O   8,C   7,C  22)          126.1717         0.429903   
     69. A(C   7,O   8,C   9)          116.7177         0.407076   
     70. A(C  10,C   9,H  29)          110.1071         0.322203   
     71. A(O   8,C   9,H  29)          108.6721         0.334153   
     72. A(O   8,C   9,C  10)          107.2054         0.375109   
     73. A(O   8,C   9,H  28)          109.8260         0.334187   
     74. A(H  28,C   9,H  29)          111.2106         0.288848   
     75. A(C  10,C   9,H  28)          109.7285         0.322235   
     76. A(O  11,C  10,H  30)          105.5078         0.333984   
     77. A(C   9,C  10,H  30)          109.2232         0.322085   
     78. A(O  11,C  10,C  12)          109.6287         0.375601   
     79. A(C   9,C  10,C  12)          113.7465         0.361682   
     80. A(C  12,C  10,H  30)          108.4279         0.322530   
     81. A(C   9,C  10,O  11)          109.9667         0.375055   
     82. A(C  10,O  11,H  31)          106.3381         0.349795   
     83. A(C  10,C  12,H  32)          110.4105         0.322504   
     84. A(C  10,C  12,H  33)          110.1953         0.322838   
     85. A(N  13,C  12,H  33)          107.8517         0.331329   
     86. A(N  13,C  12,H  32)          106.5096         0.330983   
     87. A(C  10,C  12,N  13)          114.0712         0.372123   
     88. A(H  32,C  12,H  33)          107.5301         0.288860   
     89. A(C  12,N  13,C  14)          124.9393         0.403077   
     90. A(C  14,N  13,C  17)          108.1310         0.423256   
     91. A(C  12,N  13,C  17)          126.9291         0.401254   
     92. A(N  13,C  14,N  15)          111.6825         0.440860   
     93. A(N  13,C  14,H  34)          122.6621         0.350987   
     94. A(N  15,C  14,H  34)          125.6513         0.363184   
     95. A(C  14,N  15,C  16)          105.2205         0.439440   
     96. A(C  17,C  16,C  21)          119.4716         0.430431   
     97. A(N  15,C  16,C  21)          129.3823         0.425295   
     98. A(N  15,C  16,C  17)          111.1459         0.427593   
     99. A(C  16,C  17,C  18)          122.5491         0.430921   
    100. A(N  13,C  17,C  18)          133.6318         0.425180   
    101. A(N  13,C  17,C  16)          103.8175         0.426992   
    102. A(C  19,C  18,H  35)          120.5859         0.352453   
    103. A(C  17,C  18,H  35)          122.3208         0.352275   
    104. A(C  17,C  18,C  19)          117.0931         0.429318   
    105. A(C  18,C  19,C  20)          121.3158         0.430770   
    106. A(C  18,C  19,H  36)          119.4089         0.351519   
    107. A(C  20,C  19,H  36)          119.2752         0.352460   
    108. A(C  19,C  20,C  21)          120.7192         0.430870   
    109. A(C  21,C  20,H  37)          119.4179         0.351801   
    110. A(C  19,C  20,H  37)          119.8629         0.352667   
    111. A(C  16,C  21,C  20)          118.8507         0.428930   
    112. A(C  16,C  21,H  38)          119.9377         0.351860   
    113. A(C  20,C  21,H  38)          121.2115         0.352493   
    114. A(C   7,C  22,H  39)          122.4616         0.354238   
    115. A(C   3,C  22,H  39)          118.2622         0.352618   
    116. A(C   3,C  22,C   7)          119.2758         0.432380   
    117. A(C  24,C  23,C  25)          121.4381         0.418075   
    118. A(C   4,C  23,C  25)          118.3160         0.426710   
    119. A(C   4,C  23,C  24)          120.2459         0.384902   
    120. A(H  41,C  24,H  42)          107.1678         0.289000   
    121. A(H  40,C  24,H  42)          108.9146         0.289101   
    122. A(C  23,C  24,H  42)          110.8084         0.329200   
    123. A(H  40,C  24,H  41)          107.1696         0.289001   
    124. A(C  23,C  24,H  41)          111.8145         0.329080   
    125. A(C  23,C  24,H  40)          110.8070         0.329201   
    126. A(C   1,C  25,C  23)          123.5341         0.426148   
    127. A(C  23,C  25,H  43)          121.9939         0.365634   
    128. A(C   1,C  25,H  43)          114.4720         0.337334   
    129. D(C   3,O   2,C   1,O   0)   -179.3764         0.023836   
    130. D(C   3,O   2,C   1,C  25)      0.4844         0.023836   
    131. D(C   4,C   3,O   2,C   1)     -0.1406         0.019512   
    132. D(C  22,C   3,O   2,C   1)    179.7386         0.019512   
    133. D(C   5,C   4,C   3,C  22)     -0.0774         0.025761   
    134. D(C   5,C   4,C   3,O   2)    179.7938         0.025761   
    135. D(C  23,C   4,C   3,O   2)     -0.2691         0.025761   
    136. D(C  23,C   4,C   3,C  22)    179.8597         0.025761   
    137. D(H  26,C   5,C   4,C   3)    179.9204         0.025398   
    138. D(C   6,C   5,C   4,C  23)    179.9892         0.025398   
    139. D(H  26,C   5,C   4,C  23)     -0.0134         0.025398   
    140. D(C   6,C   5,C   4,C   3)     -0.0770         0.025398   
    141. D(C   7,C   6,C   5,H  26)   -179.9402         0.024781   
    142. D(H  27,C   6,C   5,C   4)   -179.9560         0.024781   
    143. D(C   7,C   6,C   5,C   4)      0.0573         0.024781   
    144. D(H  27,C   6,C   5,H  26)      0.0466         0.024781   
    145. D(C  22,C   7,C   6,H  27)   -179.8697         0.025563   
    146. D(C  22,C   7,C   6,C   5)      0.1170         0.025563   
    147. D(O   8,C   7,C   6,H  27)      0.0807         0.025563   
    148. D(O   8,C   7,C   6,C   5)   -179.9326         0.025563   
    149. D(C   9,O   8,C   7,C   6)    178.3605         0.029826   
    150. D(C   9,O   8,C   7,C  22)     -1.6932         0.029826   
    151. D(C  10,C   9,O   8,C   7)   -178.7767         0.019264   
    152. D(H  28,C   9,O   8,C   7)    -59.6146         0.019264   
    153. D(H  29,C   9,O   8,C   7)     62.2423         0.019264   
    154. D(C  12,C  10,C   9,O   8)    172.2654         0.010779   
    155. D(C  12,C  10,C   9,H  28)     53.0405         0.010779   
    156. D(O  11,C  10,C   9,H  29)     53.7043         0.010779   
    157. D(O  11,C  10,C   9,H  28)    176.4280         0.010779   
    158. D(C  12,C  10,C   9,H  29)    -69.6832         0.010779   
    159. D(O  11,C  10,C   9,O   8)    -64.3471         0.010779   
    160. D(H  31,O  11,C  10,H  30)    -72.5467         0.017740   
    161. D(H  31,O  11,C  10,C  12)    170.8857         0.017740   
    162. D(H  31,O  11,C  10,C   9)     45.1214         0.017740   
    163. D(H  32,C  12,C  10,H  30)    -67.7659         0.010951   
    164. D(H  32,C  12,C  10,O  11)     46.9451         0.010951   
    165. D(H  32,C  12,C  10,C   9)    170.5167         0.010951   
    166. D(N  13,C  12,C  10,H  30)    172.3453         0.010951   
    167. D(N  13,C  12,C  10,O  11)    -72.9436         0.010951   
    168. D(N  13,C  12,C  10,C   9)     50.6279         0.010951   
    169. D(C  17,N  13,C  12,H  32)    136.3492         0.017229   
    170. D(C  17,N  13,C  12,C  10)   -101.5920         0.017229   
    171. D(C  14,N  13,C  12,H  33)   -159.1506         0.017229   
    172. D(C  14,N  13,C  12,H  32)    -43.9678         0.017229   
    173. D(C  14,N  13,C  12,C  10)     78.0910         0.017229   
    174. D(H  34,C  14,N  13,C  17)    179.7413         0.029755   
    175. D(H  34,C  14,N  13,C  12)      0.0079         0.029755   
    176. D(N  15,C  14,N  13,C  17)      0.4393         0.029755   
    177. D(N  15,C  14,N  13,C  12)   -179.2941         0.029755   
    178. D(C  16,N  15,C  14,H  34)   -179.4369         0.041763   
    179. D(C  16,N  15,C  14,N  13)     -0.1600         0.041763   
    180. D(C  17,C  16,N  15,C  14)     -0.1766         0.025958   
    181. D(C  21,C  16,N  15,C  14)    179.6583         0.025958   
    182. D(C  18,C  17,C  16,C  21)      0.1723         0.026133   
    183. D(C  18,C  17,C  16,N  15)   -179.9742         0.026133   
    184. D(N  13,C  17,C  16,C  21)   -179.4248         0.026133   
    185. D(N  13,C  17,C  16,N  15)      0.4286         0.026133   
    186. D(C  18,C  17,N  13,C  14)    179.9625         0.028159   
    187. D(C  18,C  17,N  13,C  12)     -0.3110         0.028159   
    188. D(C  16,C  17,N  13,C  14)     -0.5067         0.028159   
    189. D(C  16,C  17,N  13,C  12)    179.2199         0.028159   
    190. D(C  19,C  18,C  17,C  16)     -0.2308         0.024854   
    191. D(C  19,C  18,C  17,N  13)    179.2286         0.024854   
    192. D(H  35,C  18,C  17,C  16)    179.6379         0.024854   
    193. D(H  35,C  18,C  17,N  13)     -0.9027         0.024854   
    194. D(H  36,C  19,C  18,H  35)      0.1474         0.025011   
    195. D(H  36,C  19,C  18,C  17)   -179.9815         0.025011   
    196. D(C  20,C  19,C  18,H  35)   -179.7653         0.025011   
    197. D(C  20,C  19,C  18,C  17)      0.1058         0.025011   
    198. D(H  37,C  20,C  19,H  36)      0.0908         0.025861   
    199. D(H  37,C  20,C  19,C  18)   -179.9964         0.025861   
    200. D(C  21,C  20,C  19,H  36)   -179.8381         0.025861   
    201. D(C  21,C  20,C  19,C  18)      0.0747         0.025861   
    202. D(H  38,C  21,C  20,H  37)      0.0213         0.025079   
    203. D(H  38,C  21,C  20,C  19)    179.9506         0.025079   
    204. D(C  16,C  21,C  20,H  37)    179.9340         0.025079   
    205. D(C  16,C  21,C  20,C  19)     -0.1368         0.025079   
    206. D(H  38,C  21,C  16,C  17)    179.9303         0.024524   
    207. D(H  38,C  21,C  16,N  15)      0.1072         0.024524   
    208. D(C  20,C  21,C  16,C  17)      0.0165         0.024524   
    209. D(C  20,C  21,C  16,N  15)   -179.8066         0.024524   
    210. D(H  39,C  22,C   7,O   8)     -0.4392         0.026753   
    211. D(H  39,C  22,C   7,C   6)    179.5049         0.026753   
    212. D(C   3,C  22,C   7,O   8)    179.7911         0.026753   
    213. D(C   3,C  22,C   7,C   6)     -0.2648         0.026753   
    214. D(H  39,C  22,C   3,C   4)   -179.5280         0.025263   
    215. D(H  39,C  22,C   3,O   2)      0.5945         0.025263   
    216. D(C   7,C  22,C   3,C   4)      0.2514         0.025263   
    217. D(C   7,C  22,C   3,O   2)   -179.6261         0.025263   
    218. D(C  25,C  23,C   4,C   5)   -179.7659         0.014883   
    219. D(C  25,C  23,C   4,C   3)      0.3012         0.014883   
    220. D(C  24,C  23,C   4,C   5)      0.2778         0.014883   
    221. D(C  24,C  23,C   4,C   3)   -179.6552         0.014883   
    222. D(H  42,C  24,C  23,C   4)     60.3896         0.012860   
    223. D(H  41,C  24,C  23,C  25)     -0.0776         0.012860   
    224. D(H  41,C  24,C  23,C   4)    179.8773         0.012860   
    225. D(H  40,C  24,C  23,C  25)    119.4115         0.012860   
    226. D(H  40,C  24,C  23,C   4)    -60.6336         0.012860   
    227. D(H  43,C  25,C  23,C  24)     -0.0436         0.039832   
    228. D(H  43,C  25,C  23,C   4)   -179.9994         0.039832   
    229. D(C   1,C  25,C  23,C  24)   -179.9834         0.039832   
    230. D(C   1,C  25,C  23,C   4)      0.0608         0.039832   
    231. D(H  43,C  25,C   1,O   2)    179.6022         0.014668   
    232. D(H  43,C  25,C   1,O   0)     -0.5344         0.014668   
    233. D(C  23,C  25,C   1,O   2)     -0.4539         0.014668   
    234. D(C  23,C  25,C   1,O   0)    179.4095         0.014668   
    -----------------------------------------------------------------

Number of atoms                         .... 44
Number of degrees of freedom            .... 234


         *************************************************************
         *                GEOMETRY OPTIMIZATION CYCLE   1            *
         *************************************************************
---------------------------------
CARTESIAN COORDINATES (ANGSTROEM)
---------------------------------
  O      3.173088    4.488018    0.837944
  C      3.356072    3.293395    0.634872
  O      2.312860    2.392559    0.514119
  C      2.555422    1.021528    0.293482
  C      3.854831    0.522185    0.185775
  C      4.002054   -0.851453   -0.028597
  C      2.877577   -1.681616   -0.127508
  C      1.586077   -1.160257   -0.016151
  O      0.584196   -2.083902   -0.130865
  C     -0.758833   -1.600056    0.013201
  C     -1.694070   -2.809470   -0.122140
  O     -1.593525   -3.361269   -1.442989
  C     -3.160158   -2.494291    0.193893
  N     -3.681606   -1.339124   -0.509869
  C     -4.075542   -1.331858   -1.819692
  N     -4.491174   -0.144099   -2.194705
  C     -4.364864    0.649790   -1.082055
  C     -3.863142   -0.074736   -0.001495
  C     -3.640285    0.503070    1.255014
  C     -3.939645    1.863705    1.393283
  C     -4.440322    2.608600    0.324415
  C     -4.659713    2.011688   -0.922437
  C      1.423743    0.205577    0.193673
  C      4.983925    1.454815    0.300516
  C      6.392899    0.953765    0.181994
  C      4.718330    2.752441    0.511078
  H      4.984061   -1.307134   -0.123321
  H      3.015046   -2.748027   -0.293781
  H     -0.885370   -1.143319    1.001295
  H     -0.959154   -0.877511   -0.786244
  H     -1.356776   -3.604194    0.554093
  H     -0.639514   -3.405578   -1.650548
  H     -3.801027   -3.341321   -0.079551
  H     -3.286121   -2.318438    1.267382
  H     -4.027382   -2.211773   -2.449491
  H     -3.255416   -0.065160    2.094288
  H     -3.780487    2.351087    2.353389
  H     -4.664733    3.664242    0.458142
  H     -5.049131    2.582607   -1.757998
  H      0.446980    0.669246    0.280339
  H      6.611419    0.218569    0.963787
  H      7.123330    1.763908    0.286525
  H      6.560480    0.491694   -0.796720
  H      5.505598    3.492094    0.605067

----------------------------
CARTESIAN COORDINATES (A.U.)
----------------------------
  NO LB      ZA    FRAG     MASS         X           Y           Z
   0 O     8.0000    0    15.999    5.996267    8.481126    1.583485
   1 C     6.0000    0    12.011    6.342057    6.223615    1.199734
   2 O     8.0000    0    15.999    4.370673    4.521281    0.971544
   3 C     6.0000    0    12.011    4.829048    1.930408    0.554601
   4 C     6.0000    0    12.011    7.284575    0.986786    0.351064
   5 C     6.0000    0    12.011    7.562785   -1.609014   -0.054040
   6 C     6.0000    0    12.011    5.437832   -3.177794   -0.240955
   7 C     6.0000    0    12.011    2.997251   -2.192569   -0.030521
   8 O     8.0000    0    15.999    1.103970   -3.938004   -0.247299
   9 C     6.0000    0    12.011   -1.433987   -3.023668    0.024946
  10 C     6.0000    0    12.011   -3.201328   -5.309128   -0.230811
  11 O     8.0000    0    15.999   -3.011326   -6.351878   -2.726855
  12 C     6.0000    0    12.011   -5.971833   -4.713527    0.366405
  13 N     7.0000    0    14.007   -6.957227   -2.530577   -0.963513
  14 C     6.0000    0    12.011   -7.701659   -2.516847   -3.438720
  15 N     7.0000    0    14.007   -8.487089   -0.272307   -4.147390
  16 C     6.0000    0    12.011   -8.248397    1.227925   -2.044787
  17 C     6.0000    0    12.011   -7.300281   -0.141230   -0.002826
  18 C     6.0000    0    12.011   -6.879142    0.950665    2.371633
  19 C     6.0000    0    12.011   -7.444850    3.521893    2.632924
  20 C     6.0000    0    12.011   -8.390993    4.929539    0.613055
  21 C     6.0000    0    12.011   -8.805581    3.801540   -1.743154
  22 C     6.0000    0    12.011    2.690484    0.388485    0.365988
  23 C     6.0000    0    12.011    9.418253    2.749203    0.567893
  24 C     6.0000    0    12.011   12.080829    1.802355    0.343919
  25 C     6.0000    0    12.011    8.916351    5.201360    0.965798
  26 H     1.0000    0     1.008    9.418510   -2.470126   -0.233043
  27 H     1.0000    0     1.008    5.697612   -5.193018   -0.555165
  28 H     1.0000    0     1.008   -1.673106   -2.160560    1.892174
  29 H     1.0000    0     1.008   -1.812539   -1.658255   -1.485787
  30 H     1.0000    0     1.008   -2.563935   -6.810940    1.047084
  31 H     1.0000    0     1.008   -1.208507   -6.435609   -3.119083
  32 H     1.0000    0     1.008   -7.182899   -6.314182   -0.150330
  33 H     1.0000    0     1.008   -6.209868   -4.381213    2.395005
  34 H     1.0000    0     1.008   -7.610648   -4.179646   -4.628866
  35 H     1.0000    0     1.008   -6.151844   -0.123135    3.957631
  36 H     1.0000    0     1.008   -7.144084    4.442911    4.447260
  37 H     1.0000    0     1.008   -8.815069    6.924414    0.865762
  38 H     1.0000    0     1.008   -9.541474    4.880420   -3.322135
  39 H     1.0000    0     1.008    0.844671    1.264692    0.529764
  40 H     1.0000    0     1.008   12.493771    0.413035    1.821294
  41 H     1.0000    0     1.008   13.461144    3.333302    0.541454
  42 H     1.0000    0     1.008   12.397511    0.929167   -1.505582
  43 H     1.0000    0     1.008   10.404072    6.599102    1.143411

--------------------------------
INTERNAL COORDINATES (ANGSTROEM)
--------------------------------
 O      0   0   0     0.000000000000     0.00000000     0.00000000
 C      1   0   0     1.225498482302     0.00000000     0.00000000
 O      2   1   0     1.383610332200   122.44949549     0.00000000
 C      3   2   1     1.409696029165   121.14087130   180.62358538
 C      4   3   2     1.396211807291   121.33511934   359.85941441
 C      5   4   3     1.398038475413   117.46672136   179.79375279
 C      6   5   4     1.401214051019   120.55961605   359.92299423
 C      7   6   5     1.397206880348   121.00342210     0.05728351
 O      8   7   6     1.367495604740   114.73952847   180.06737300
 C      9   8   7     1.434778256445   116.71765731   178.36053767
 C     10   9   8     1.534817731444   107.20535591   181.22330799
 O     11  10   9     1.435003407000   109.96669470   295.65291371
 C     11  10   9     1.532523613305   113.74646915   172.26537648
 N     13  11  10     1.449690141018   114.07116627    50.62789403
 C     14  13  11     1.367799098214   124.93929314    78.09103074
 N     15  14  13     1.313071589877   111.68250177   180.70588149
 C     16  15  14     1.372662682385   105.22046817   359.84000957
 C     14  13  11     1.374800662411   126.92908619   258.40800824
 C     18  14  13     1.400835881262   133.63178133   359.68904901
 C     19  18  14     1.400022076170   117.09311521   179.22864539
 C     20  19  18     1.395716813093   121.31584736     0.10581644
 C     21  20  19     1.399669903977   120.71917177     0.07465183
 C      8   7   6     1.391360029660   119.08870072     0.11701108
 C      5   4   3     1.468951278206   118.83290697   359.73086993
 C     24   5   4     1.500102750024   120.24593754   180.34484154
 C     24   5   4     1.341159819379   118.31597226     0.30116384
 H      6   5   4     1.086718183866   121.36749298   179.92035856
 H      7   6   5     1.088014694652   119.34636074   180.04403599
 H     10   9   8     1.095879030639   109.82599052   300.38544322
 H     10   9   8     1.096044383283   108.67211026    62.24231602
 H     11  10   9     1.096651734972   109.22320206    50.99049778
 H     12  11  10     0.977333093777   106.33811111    45.12142856
 H     13  11  10     1.096788428449   110.41049246   170.51665533
 H     13  11  10     1.095066114478   110.19532729   289.15703045
 H     15  14  13     1.083151069315   122.66210147     0.00000000
 H     19  18  14     1.084154637983   122.32081275   359.09734690
 H     20  19  18     1.088427745875   119.40890077   180.01848891
 H     21  20  19     1.087485402998   119.86290450   180.00355627
 H     22  21  20     1.084322950936   121.21153200   179.95056447
 H     23   8   7     1.084695708607   122.46164865   179.50494126
 H     25  24   5     1.095201299850   110.80701674   299.36638349
 H     25  24   5     1.095803983970   111.81450881   179.87731711
 H     25  24   5     1.095205015023   110.80839382    60.38964201
 H     26  24   5     1.084302522603   121.99386224   180.00062438

---------------------------
INTERNAL COORDINATES (A.U.)
---------------------------
 O      0   0   0     0.000000000000     0.00000000     0.00000000
 C      1   0   0     2.315856509088     0.00000000     0.00000000
 O      2   1   0     2.614644603921   122.44949549     0.00000000
 C      3   2   1     2.663939427198   121.14087130   180.62358538
 C      4   3   2     2.638457940728   121.33511934   359.85941441
 C      5   4   3     2.641909843216   117.46672136   179.79375279
 C      6   5   4     2.647910811429   120.55961605   359.92299423
 C      7   6   5     2.640338356288   121.00342210     0.05728351
 O      8   7   6     2.584192182300   114.73952847   180.06737300
 C      9   8   7     2.711337967587   116.71765731   178.36053767
 C     10   9   8     2.900385177916   107.20535591   181.22330799
 O     11  10   9     2.711763440473   109.96669470   295.65291371
 C     11  10   9     2.896049922915   113.74646915   172.26537648
 N     13  11  10     2.739517345569   114.07116627    50.62789403
 C     14  13  11     2.584765701849   124.93929314    78.09103074
 N     15  14  13     2.481345699100   111.68250177   180.70588149
 C     16  15  14     2.593956543962   105.22046817   359.84000957
 C     14  13  11     2.597996740690   126.92908619   258.40800824
 C     18  14  13     2.647196174156   133.63178133   359.68904901
 C     19  18  14     2.645658305405   117.09311521   179.22864539
 C     20  19  18     2.637522537256   121.31584736     0.10581644
 C     21  20  19     2.644992796409   120.71917177     0.07465183
 C      8   7   6     2.629289409742   119.08870072     0.11701108
 C      5   4   3     2.775915619883   118.83290697   359.73086993
 C     24   5   4     2.834783370288   120.24593754   180.34484154
 C     24   5   4     2.534424760446   118.31597226     0.30116384
 H      6   5   4     2.053599752258   121.36749298   179.92035856
 H      7   6   5     2.056049802573   119.34636074   180.04403599
 H     10   9   8     2.070911243815   109.82599052   300.38544322
 H     10   9   8     2.071223715028   108.67211026    62.24231602
 H     11  10   9     2.072371443386   109.22320206    50.99049778
 H     12  11  10     1.846891888856   106.33811111    45.12142856
 H     13  11  10     2.072629756623   110.41049246   170.51665533
 H     13  11  10     2.069375054900   110.19532729   289.15703045
 H     15  14  13     2.046858882670   122.66210147     0.00000000
 H     19  18  14     2.048755352608   122.32081275   359.09734690
 H     20  19  18     2.056830356266   119.40890077   180.01848891
 H     21  20  19     2.055049586303   119.86290450   180.00355627
 H     22  21  20     2.049073417995   121.21153200   179.95056447
 H     23   8   7     2.049777827906   122.46164865   179.50494126
 H     25  24   5     2.069630518232   110.80701674   299.36638349
 H     25  24   5     2.070769426163   111.81450881   179.87731711
 H     25  24   5     2.069637538890   110.80839382    60.38964201
 H     26  24   5     2.049034814039   121.99386224   180.00062438

---------------------
BASIS SET INFORMATION
---------------------
There are 4 groups of distinct atoms

 Group   1 Type O   : 7s4p1d contracted to 3s2p1d pattern {511/31/1}
 Group   2 Type C   : 7s4p1d contracted to 3s2p1d pattern {511/31/1}
 Group   3 Type N   : 7s4p1d contracted to 3s2p1d pattern {511/31/1}
 Group   4 Type H   : 4s1p contracted to 2s1p pattern {31/1}

Atom   0O    basis set group =>   1
Atom   1C    basis set group =>   2
Atom   2O    basis set group =>   1
Atom   3C    basis set group =>   2
Atom   4C    basis set group =>   2
Atom   5C    basis set group =>   2
Atom   6C    basis set group =>   2
Atom   7C    basis set group =>   2
Atom   8O    basis set group =>   1
Atom   9C    basis set group =>   2
Atom  10C    basis set group =>   2
Atom  11O    basis set group =>   1
Atom  12C    basis set group =>   2
Atom  13N    basis set group =>   3
Atom  14C    basis set group =>   2
Atom  15N    basis set group =>   3
Atom  16C    basis set group =>   2
Atom  17C    basis set group =>   2
Atom  18C    basis set group =>   2
Atom  19C    basis set group =>   2
Atom  20C    basis set group =>   2
Atom  21C    basis set group =>   2
Atom  22C    basis set group =>   2
Atom  23C    basis set group =>   2
Atom  24C    basis set group =>   2
Atom  25C    basis set group =>   2
Atom  26H    basis set group =>   4
Atom  27H    basis set group =>   4
Atom  28H    basis set group =>   4
Atom  29H    basis set group =>   4
Atom  30H    basis set group =>   4
Atom  31H    basis set group =>   4
Atom  32H    basis set group =>   4
Atom  33H    basis set group =>   4
Atom  34H    basis set group =>   4
Atom  35H    basis set group =>   4
Atom  36H    basis set group =>   4
Atom  37H    basis set group =>   4
Atom  38H    basis set group =>   4
Atom  39H    basis set group =>   4
Atom  40H    basis set group =>   4
Atom  41H    basis set group =>   4
Atom  42H    basis set group =>   4
Atom  43H    basis set group =>   4
---------------------------------
AUXILIARY/J BASIS SET INFORMATION
---------------------------------
There are 4 groups of distinct atoms

 Group   1 Type O   : 12s5p4d2f1g contracted to 6s4p3d1f1g pattern {711111/2111/211/2/1}
 Group   2 Type C   : 12s5p4d2f1g contracted to 6s4p3d1f1g pattern {711111/2111/211/2/1}
 Group   3 Type N   : 12s5p4d2f1g contracted to 6s4p3d1f1g pattern {711111/2111/211/2/1}
 Group   4 Type H   : 5s2p1d contracted to 3s1p1d pattern {311/2/1}

Atom   0O    basis set group =>   1
Atom   1C    basis set group =>   2
Atom   2O    basis set group =>   1
Atom   3C    basis set group =>   2
Atom   4C    basis set group =>   2
Atom   5C    basis set group =>   2
Atom   6C    basis set group =>   2
Atom   7C    basis set group =>   2
Atom   8O    basis set group =>   1
Atom   9C    basis set group =>   2
Atom  10C    basis set group =>   2
Atom  11O    basis set group =>   1
Atom  12C    basis set group =>   2
Atom  13N    basis set group =>   3
Atom  14C    basis set group =>   2
Atom  15N    basis set group =>   3
Atom  16C    basis set group =>   2
Atom  17C    basis set group =>   2
Atom  18C    basis set group =>   2
Atom  19C    basis set group =>   2
Atom  20C    basis set group =>   2
Atom  21C    basis set group =>   2
Atom  22C    basis set group =>   2
Atom  23C    basis set group =>   2
Atom  24C    basis set group =>   2
Atom  25C    basis set group =>   2
Atom  26H    basis set group =>   4
Atom  27H    basis set group =>   4
Atom  28H    basis set group =>   4
Atom  29H    basis set group =>   4
Atom  30H    basis set group =>   4
Atom  31H    basis set group =>   4
Atom  32H    basis set group =>   4
Atom  33H    basis set group =>   4
Atom  34H    basis set group =>   4
Atom  35H    basis set group =>   4
Atom  36H    basis set group =>   4
Atom  37H    basis set group =>   4
Atom  38H    basis set group =>   4
Atom  39H    basis set group =>   4
Atom  40H    basis set group =>   4
Atom  41H    basis set group =>   4
Atom  42H    basis set group =>   4
Atom  43H    basis set group =>   4


           ************************************************************
           *        Program running with 8 parallel MPI-processes     *
           *              working on a common directory               *
           ************************************************************
------------------------------------------------------------------------------
                             ORCA STARTUP CALCULATIONS
                           -- RI-GTO INTEGRALS CHOSEN --
------------------------------------------------------------------------------
------------------------------------------------------------------------------
                   ___                                                        
                  /   \      - P O W E R E D   B Y -                         
                 /     \                                                     
                 |  |  |   _    _      __       _____    __    __             
                 |  |  |  | |  | |    /  \     |  _  \  |  |  /  |          
                  \  \/   | |  | |   /    \    | | | |  |  | /  /          
                 / \  \   | |__| |  /  /\  \   | |_| |  |  |/  /          
                |  |  |   |  __  | /  /__\  \  |    /   |      \           
                |  |  |   | |  | | |   __   |  |    \   |  |\   \          
                \     /   | |  | | |  |  |  |  | |\  \  |  | \   \       
                 \___/    |_|  |_| |__|  |__|  |_| \__\ |__|  \__/        
                                                                              
                      - O R C A' S   B I G   F R I E N D -                    
                                      &                                       
                       - I N T E G R A L  F E E D E R -                       
                                                                              
 v1 FN, 2020, v2 2021, v3 2022-2024                                           
------------------------------------------------------------------------------


----------------------
SHARK INTEGRAL PACKAGE
----------------------

Number of atoms                             ...     44
Number of basis functions                   ...    454
Number of shells                            ...    210
Maximum angular momentum                    ...      2
Integral batch strategy                     ... SHARK/LIBINT Hybrid
RI-J (if used) integral strategy            ... SPLIT-RIJ (Revised 2003 algorithm where possible)
Printlevel                                  ...      1
Contraction scheme used                     ... SEGMENTED contraction
Prescreening option                         ... SCHWARTZ
   Thresh                                   ... 2.500e-11
   Tcut                                     ... 2.500e-12
   Tpresel                                  ... 2.500e-12 
Coulomb Range Separation                    ... NOT USED
Exchange Range Separation                   ... NOT USED
Multipole approximations                    ... NOT USED
Finite Nucleus Model                        ... NOT USED
CABS basis                                  ... NOT available
Auxiliary Coulomb fitting basis             ... AVAILABLE
   # of basis functions in Aux-J            ...   1472
   # of shells in Aux-J                     ...    480
   Maximum angular momentum in Aux-J        ...      4
Auxiliary J/K fitting basis                 ... NOT available
Auxiliary Correlation fitting basis         ... NOT available
Auxiliary 'external' fitting basis          ... NOT available

Checking pre-screening integrals            ... done (  0.0 sec) Dimension = 210
   => SHARK Basis and OBASIS are compatible. Storing Pre-screening
Shell pair information
Shell pair cut-off parameter TPreSel        ...   2.5e-12
Total number of shell pairs                 ...     22155
Shell pairs after pre-screening             ...     13970
Total number of primitive shell pairs       ...     81395
Primitive shell pairs kept                  ...     32290
          la=0 lb=0:   4252 shell pairs
          la=1 lb=0:   5214 shell pairs
          la=1 lb=1:   1643 shell pairs
          la=2 lb=0:   1671 shell pairs
          la=2 lb=1:   1027 shell pairs
          la=2 lb=2:    163 shell pairs

Checking whether 4 symmetric matrices of dimension 454 fit in memory
:Max Core in MB      =   3000.00
 MB in use           =     17.03
 MB left             =   2982.97
 MB needed           =      3.15
 Data fit in memory  = YES
Calculating RI/J V-Matrix + Cholesky decomp.... done (  0.1 sec)
Calculating Nuclear repulsion               ... done (  0.0 sec) ENN=   2171.975999239678 Eh

Diagonalization of the overlap matrix:
Smallest eigenvalue                        ... 2.141e-04
Time for diagonalization                   ...    0.019 sec
Threshold for overlap eigenvalues          ... 1.000e-07
Number of eigenvalues below threshold      ... 0
Time for construction of square roots      ...    0.010 sec
Total time needed                          ...    0.030 sec

-------------------
DFT GRID GENERATION
-------------------

General Integration Accuracy     IntAcc      ... 4.388
Radial Grid Type                 RadialGrid  ... OptM3 with GC (2021)
Angular Grid (max. ang.)         AngularGrid ... 4 (Lebedev-302)
Angular grid pruning method      GridPruning ... 4 (adaptive)
Weight generation scheme         WeightScheme... mBecke (2022)
Basis function cutoff            BFCut       ... 1.0000e-11
Integration weight cutoff        WCut        ... 1.0000e-14
Partially contracted basis set               ... off
Rotationally invariant grid construction     ... off
Angular grids for H and He will be reduced by one unit

Total number of grid points                  ...   212712
Total number of batches                      ...     3345
Average number of points per batch           ...       63
Average number of grid points per atom       ...     4834

--------------------
COSX GRID GENERATION
--------------------

GRIDX 1
-------
General Integration Accuracy     IntAcc      ... 3.816
Radial Grid Type                 RadialGrid  ... OptM3 with GC (2021)
Angular Grid (max. ang.)         AngularGrid ... 1 (Lebedev-50)
Angular grid pruning method      GridPruning ... 4 (adaptive)
Weight generation scheme         WeightScheme... mBecke (2022)
Basis function cutoff            BFCut       ... 1.0000e-11
Integration weight cutoff        WCut        ... 1.0000e-14
Partially contracted basis set               ... on
Rotationally invariant grid construction     ... off
Angular grids for H and He will be reduced by one unit

Total number of grid points                  ...    27019
Total number of batches                      ...      235
Average number of points per batch           ...      114
Average number of grid points per atom       ...      614
UseSFitting                                  ... on

GRIDX 2
-------
General Integration Accuracy     IntAcc      ... 4.020
Radial Grid Type                 RadialGrid  ... OptM3 with GC (2021)
Angular Grid (max. ang.)         AngularGrid ... 2 (Lebedev-110)
Angular grid pruning method      GridPruning ... 4 (adaptive)
Weight generation scheme         WeightScheme... mBecke (2022)
Basis function cutoff            BFCut       ... 1.0000e-11
Integration weight cutoff        WCut        ... 1.0000e-14
Partially contracted basis set               ... on
Rotationally invariant grid construction     ... off
Angular grids for H and He will be reduced by one unit

Total number of grid points                  ...    58953
Total number of batches                      ...      484
Average number of points per batch           ...      121
Average number of grid points per atom       ...     1340
UseSFitting                                  ... on

GRIDX 3
-------
General Integration Accuracy     IntAcc      ... 4.338
Radial Grid Type                 RadialGrid  ... OptM3 with GC (2021)
Angular Grid (max. ang.)         AngularGrid ... 3 (Lebedev-194)
Angular grid pruning method      GridPruning ... 4 (adaptive)
Weight generation scheme         WeightScheme... mBecke (2022)
Basis function cutoff            BFCut       ... 1.0000e-11
Integration weight cutoff        WCut        ... 1.0000e-14
Partially contracted basis set               ... on
Rotationally invariant grid construction     ... off
Angular grids for H and He will be reduced by one unit

Total number of grid points                  ...   128952
Total number of batches                      ...     1028
Average number of points per batch           ...      125
Average number of grid points per atom       ...     2931
UseSFitting                                  ... on
Grids setup in   1.7 sec
Initializing property integral containers    ... done (  0.1 sec)

SHARK setup successfully completed in   2.0 seconds

Maximum memory used throughout the entire STARTUP-calculation: 55.5 MB


           ************************************************************
           *        Program running with 8 parallel MPI-processes     *
           *              working on a common directory               *
           ************************************************************
-------------------------------------------------------------------------------
                                 ORCA GUESS
                   Start orbitals & Density for SCF / CASSCF
-------------------------------------------------------------------------------

------------
SCF SETTINGS
------------
Hamiltonian:
 Density Functional     Method          .... DFT(GTOs)
 Exchange Functional    Exchange        .... B88
   X-Alpha parameter    XAlpha          ....  0.666667
   Becke's b parameter  XBeta           ....  0.004200
 Correlation Functional Correlation     .... LYP
 LDA part of GGA corr.  LDAOpt          .... VWN-5
 Gradients option       PostSCFGGA      .... off
 Hybrid DFT is turned on
   Fraction HF Exchange ScalHFX         ....  0.200000
   Scaling of DF-GGA-X  ScalDFX         ....  0.720000
   Scaling of DF-GGA-C  ScalDFC         ....  0.810000
   Scaling of DF-LDA-C  ScalLDAC        ....  1.000000
   Perturbative correction              ....  0.000000
   NL short-range parameter             ....  4.800000
 RI-approximation to the Coulomb term is turned on
   Number of AuxJ basis functions       .... 1472
   RIJ-COSX (HFX calculated with COS-X)).... on


General Settings:
 Integral files         IntName         .... D:\Makaleler\coumarin-logp-working-source\dft\molecules\CMR_GOLD_029\input\CMR_GOLD_029_optfreq
 Hartree-Fock type      HFTyp           .... RHF
 Total Charge           Charge          ....    0
 Multiplicity           Mult            ....    1
 Number of Electrons    NEL             ....  184
 Basis Dimension        Dim             ....  454
 Nuclear Repulsion      ENuc            ....   2171.9759992397 Eh

Convergence Acceleration:
 AO-DIIS                CNVDIIS         .... on
   Start iteration      DIISMaxIt       ....    12
   Startup error        DIISStart       ....  0.200000
   # of expansion vecs  DIISMaxEq       ....     5
   Bias factor          DIISBfac        ....   1.050
   Max. coefficient     DIISMaxC        ....  10.000
 MO-DIIS                CNVKDIIS        .... off
 Trust-Rad. Augm. Hess. CNVTRAH         .... auto
   Auto Start mean grad. ratio tolernc. ....  1.125000
   Auto Start start iteration           ....    50
   Auto Start num. interpolation iter.  ....    10
   Max. Number of Micro iterations      ....    24
   Max. Number of Macro iterations      .... Maxiter - #DIIS iter
   Number of Davidson start vectors     ....     2
   Converg. threshold    (grad. norm)   ....   1.000e-05
   Grad. Scal. Fac. for Micro threshold ....   0.100
   Minimum threshold for Micro iter.    ....   1.000e-02
   NR start threshold (gradient norm)   ....   1.000e-04
   Initial trust radius                 ....   0.400
   Minimum AH scaling param. (alpha)    ....   1.000
   Maximum AH scaling param. (alpha)    .... 1000.000
   Quad. conv. algorithm                .... NR
   White noise on init. David. guess    .... on
   Maximum white noise                  ....   0.010
   Pseudo random numbers                .... off
   Inactive MOs                         .... canonical
   Orbital update algorithm             .... Taylor
   Preconditioner                       .... Diag
   Full preconditioner red. dimension   ....   250
 SOSCF                 CNVSOSCF           .... on
   Start iteration     SOSCFMaxIt         ....   150
   Startup grad/error  SOSCFStart         ....  0.003300
   Hessian update      SOSCFHessUp        .... L-BFGS
   Autom. constraints  SOSCFAutoConstrain .... off
 Level Shifting         CNVShift        .... on
   Level shift para.    LevelShift      ....    0.2500
   Turn off err/grad.   ShiftErr        ....    0.0010
 Zerner damping         CNVZerner       .... off
 Static damping         CNVDamp         .... on
   Fraction old density DampFac         ....    0.7000
   Max. Damping (<1)    DampMax         ....    0.9800
   Min. Damping (>=0)   DampMin         ....    0.0000
   Turn off err/grad.   DampErr         ....    0.1000

SCF Procedure:
 Maximum # iterations   MaxIter         ....   500
 SCF integral mode      SCFMode         .... Direct
   Integral package                     .... SHARK and LIBINT hybrid scheme
 Reset frequency        DirectResetFreq ....    20
 Integral Threshold     Thresh          ....  2.500e-11 Eh
 Primitive CutOff       TCut            ....  2.500e-12 Eh

Convergence Tolerance:
 Convergence Check Mode ConvCheckMode   .... Total+1el-Energy
 Convergence forced     ConvForced      .... 0
 Energy Change          TolE            ....  1.000e-08 Eh
 1-El. energy change                    ....  1.000e-05 Eh
 Orbital Gradient       TolG            ....  1.000e-05
 Orbital Rotation angle TolX            ....  1.000e-05
 DIIS Error             TolErr          ....  5.000e-07

------------------------------
INITIAL GUESS: MODEL POTENTIAL
------------------------------
Loading Hartree-Fock densities                     ... done
Calculating cut-offs                               ... done
Initializing the effective Hamiltonian             ... done
Setting up the integral package (SHARK)            ... done
Starting the Coulomb interaction                   ... done (   0.1 sec)
Making the grid                                    ... done (   0.3 sec)
Mapping shells                                     ... done
Starting the XC term evaluation                    ... done (   0.1 sec)
  promolecular density results
     # of electrons  =    183.983914293
     EX              =   -154.202783356
     EC              =     -6.322920510
     EX+EC           =   -160.525703866
Transforming the Hamiltonian                       ... done (   0.0 sec)
Diagonalizing the Hamiltonian                      ... done (   0.0 sec)
Back transforming the eigenvectors                 ... done (   0.0 sec)
Now organizing SCF variables                       ... done
                      ------------------
                      INITIAL GUESS DONE (   0.6 sec)
                      ------------------
             **** ENERGY FILE WAS UPDATED (D:\Makaleler\coumarin-logp-working-source\dft\molecules\CMR_GOLD_029\input\CMR_GOLD_029_optfreq.en.tmp) ****
Finished Guess after   0.7 sec
Maximum memory used throughout the entire GUESS-calculation: 23.1 MB


           ************************************************************
           *        Program running with 8 parallel MPI-processes     *
           *              working on a common directory               *
           ************************************************************

-------------------------------------------------------------------------------------------
                                      ORCA LEAN-SCF
                              memory conserving SCF solver
-------------------------------------------------------------------------------------------

--------------------
CPCM SOLVATION MODEL
--------------------
CPCM parameters:
  Epsilon                                         ...      80.1510
  Refrac                                          ...       1.3328
  Rsolv                                           ...       1.3000
  Surface type                                    ... GAUSSIAN VDW
  Discretization scheme                           ... Constant charge density
    Threshold for H atoms                         ...       5.0000 (charges/Ang^2)
    Threshold for non-H atoms                     ...       5.0000 (charges/Ang^2)
  Epsilon function type                           ...         CPCM
Solvent:                                          ... WATER
Radii:
  Scheme                                          ... Element-dependent radii
  Radius for O  used is    3.4469 Bohr (=   1.8240 Ang.)
  Radius for C  used is    3.8550 Bohr (=   2.0400 Ang.)
  Radius for N  used is    3.5149 Bohr (=   1.8600 Ang.)
  Radius for H  used is    2.4944 Bohr (=   1.3200 Ang.)
Calculating surface                               ...        done! (  0.0s)
Cavity surface points                             ...         3909
Cavity Volume                                     ...    2728.0141
Cavity Surface-area                               ...    1388.5363
Calculating surface distance matrix               ...        done! (  0.1s)
Performing Cholesky decomposition & store         ...        done! (  0.3s)
Overall time for CPCM initialization              ...                 0.4s

----------------------------------------D-I-I-S--------------------------------------------
Iteration    Energy (Eh)           Delta-E    RMSDP     MaxDP     DIISErr   Damp  Time(sec)
-------------------------------------------------------------------------------------------
               ***  Starting incremental Fock matrix formation  ***
    1    -1181.3131747811230525     0.00e+00  6.47e-03  1.16e-01  2.74e-01  0.700   2.8
    2    -1181.5642582987306923    -2.51e-01  4.30e-03  7.26e-02  1.06e-01  0.700   2.5
                               ***Turning on AO-DIIS***
    3    -1181.6655555179563635    -1.01e-01  1.95e-03  1.79e-02  3.58e-02  0.700   2.5
    4    -1181.7271606020685795    -6.16e-02  3.66e-03  3.62e-02  1.88e-02  0.000   2.2
    5    -1181.8610764719846884    -1.34e-01  5.14e-04  7.74e-03  5.27e-03  0.000   2.0
                              *** Initializing SOSCF ***
---------------------------------------S-O-S-C-F--------------------------------------
Iteration    Energy (Eh)           Delta-E    RMSDP     MaxDP     MaxGrad    Time(sec)
--------------------------------------------------------------------------------------
    6    -1181.8618027487709696    -7.26e-04  1.82e-04  2.22e-03  2.18e-03     1.5
               *** Restarting incremental Fock matrix formation ***
    7    -1181.8618399795795995    -3.72e-05  1.47e-04  2.83e-03  2.97e-04     2.7
    8    -1181.8618282861998523     1.17e-05  7.34e-05  2.03e-03  5.88e-04     2.1
    9    -1181.8618506234925007    -2.23e-05  2.77e-05  3.61e-04  5.82e-05     1.8
   10    -1181.8618503364345997     2.87e-07  1.42e-05  2.24e-04  8.35e-05     1.7
   11    -1181.8618511032000242    -7.67e-07  6.77e-06  1.35e-04  2.26e-05     1.7
   12    -1181.8618510975597928     5.64e-09  4.02e-06  7.69e-05  3.05e-05     1.6
                 **** Energy Check signals convergence ****

               *****************************************************
               *                     SUCCESS                       *
               *           SCF CONVERGED AFTER  12 CYCLES          *
               *****************************************************

Recomputing exchange energy using gridx3       ... done (    3.839 sec)
Old exchange energy                            :    -31.216763091 Eh
New exchange energy                            :    -31.216867313 Eh
Exchange energy change after final integration :     -0.000104222 Eh
Total energy after final integration           :  -1181.861955362 Eh
             **** ENERGY FILE WAS UPDATED (D:\Makaleler\coumarin-logp-working-source\dft\molecules\CMR_GOLD_029\input\CMR_GOLD_029_optfreq.en.tmp) ****

----------------
TOTAL SCF ENERGY
----------------

Total Energy       :      -1181.86195536189075 Eh          -32160.09879 eV

Components:
Nuclear Repulsion  :       2171.97599923967800 Eh           59102.47165 eV
Electronic Energy  :      -3353.80178316480669 Eh          -91261.58617 eV
One Electron Energy:      -5922.73804277423369 Eh         -161165.89566 eV
Two Electron Energy:       2568.93625960942700 Eh           69904.30949 eV
CPCM Dielectric    :         -0.03606721508945 Eh              -0.98144 eV

Virial components:
Potential Energy   :      -2352.59380610356038 Eh          -64017.33204 eV
Kinetic Energy     :       1170.73185074166940 Eh           31857.23325 eV
Virial Ratio       :          2.00950696319842

DFT components:
N(Alpha)           :       91.999926109829 electrons
N(Beta)            :       91.999926109829 electrons
N(Total)           :      183.999852219658 electrons
E(X)               :     -124.083895360691 Eh       
E(C)               :       -7.435715463282 Eh       
E(XC)              :     -131.519610823972 Eh       

CPCM Solvation Model Properties:
Surface-charge          :         -0.02692737251767
Corrected charge        :         -0.00000000000000
Outlying charge corr.   :          0.00003564336848 Eh               0.00097 eV
Free-energy (cav+disp)  :  This term is not implemented in the current solvation scheme

---------------
SCF CONVERGENCE
---------------

  Last Energy change         ...   -5.6402e-09  Tolerance :   1.0000e-08
  Last MAX-Density change    ...    7.6943e-05  Tolerance :   1.0000e-07
  Last RMS-Density change    ...    4.0202e-06  Tolerance :   5.0000e-09
  Last DIIS Error            ...    2.1845e-03  Tolerance :   5.0000e-07
  Last Orbital Gradient      ...    3.0541e-05  Tolerance :   1.0000e-05
  Last Orbital Rotation      ...    3.4890e-05  Tolerance :   1.0000e-05


----------------
ORBITAL ENERGIES
----------------

  NO   OCC          E(Eh)            E(eV) 
   0   2.0000     -19.203141      -522.5440 
   1   2.0000     -19.179139      -521.8909 
   2   2.0000     -19.132122      -520.6115 
   3   2.0000     -19.120527      -520.2960 
   4   2.0000     -14.381900      -391.3514 
   5   2.0000     -14.307904      -389.3379 
   6   2.0000     -10.322367      -280.8859 
   7   2.0000     -10.271854      -279.5114 
   8   2.0000     -10.264641      -279.3151 
   9   2.0000     -10.246708      -278.8271 
  10   2.0000     -10.244242      -278.7600 
  11   2.0000     -10.243625      -278.7432 
  12   2.0000     -10.232580      -278.4427 
  13   2.0000     -10.223077      -278.1841 
  14   2.0000     -10.218471      -278.0587 
  15   2.0000     -10.206823      -277.7418 
  16   2.0000     -10.204821      -277.6873 
  17   2.0000     -10.202637      -277.6279 
  18   2.0000     -10.200571      -277.5716 
  19   2.0000     -10.193668      -277.3838 
  20   2.0000     -10.192595      -277.3546 
  21   2.0000     -10.192579      -277.3542 
  22   2.0000     -10.187146      -277.2063 
  23   2.0000     -10.186461      -277.1877 
  24   2.0000     -10.185763      -277.1687 
  25   2.0000     -10.182900      -277.0908 
  26   2.0000      -1.097627       -29.8679 
  27   2.0000      -1.068393       -29.0724 
  28   2.0000      -1.021968       -27.8092 
  29   2.0000      -1.012709       -27.5572 
  30   2.0000      -1.003964       -27.3193 
  31   2.0000      -0.888778       -24.1849 
  32   2.0000      -0.870558       -23.6891 
  33   2.0000      -0.837995       -22.8030 
  34   2.0000      -0.826290       -22.4845 
  35   2.0000      -0.779576       -21.2133 
  36   2.0000      -0.759713       -20.6728 
  37   2.0000      -0.751004       -20.4359 
  38   2.0000      -0.733344       -19.9553 
  39   2.0000      -0.729976       -19.8637 
  40   2.0000      -0.714292       -19.4369 
  41   2.0000      -0.700625       -19.0650 
  42   2.0000      -0.654940       -17.8218 
  43   2.0000      -0.636535       -17.3210 
  44   2.0000      -0.628917       -17.1137 
  45   2.0000      -0.608850       -16.5677 
  46   2.0000      -0.599816       -16.3218 
  47   2.0000      -0.598010       -16.2727 
  48   2.0000      -0.566313       -15.4102 
  49   2.0000      -0.564980       -15.3739 
  50   2.0000      -0.531234       -14.4556 
  51   2.0000      -0.526319       -14.3219 
  52   2.0000      -0.522502       -14.2180 
  53   2.0000      -0.516387       -14.0516 
  54   2.0000      -0.505803       -13.7636 
  55   2.0000      -0.494631       -13.4596 
  56   2.0000      -0.484946       -13.1961 
  57   2.0000      -0.478575       -13.0227 
  58   2.0000      -0.473550       -12.8859 
  59   2.0000      -0.468238       -12.7414 
  60   2.0000      -0.454889       -12.3782 
  61   2.0000      -0.448678       -12.2091 
  62   2.0000      -0.442679       -12.0459 
  63   2.0000      -0.437616       -11.9081 
  64   2.0000      -0.435753       -11.8574 
  65   2.0000      -0.424979       -11.5643 
  66   2.0000      -0.422636       -11.5005 
  67   2.0000      -0.420488       -11.4421 
  68   2.0000      -0.419012       -11.4019 
  69   2.0000      -0.412986       -11.2379 
  70   2.0000      -0.404172       -10.9981 
  71   2.0000      -0.397060       -10.8046 
  72   2.0000      -0.394673       -10.7396 
  73   2.0000      -0.388060       -10.5596 
  74   2.0000      -0.373054       -10.1513 
  75   2.0000      -0.364934        -9.9304 
  76   2.0000      -0.364140        -9.9088 
  77   2.0000      -0.358424        -9.7532 
  78   2.0000      -0.355685        -9.6787 
  79   2.0000      -0.347932        -9.4677 
  80   2.0000      -0.345500        -9.4015 
  81   2.0000      -0.339364        -9.2346 
  82   2.0000      -0.333781        -9.0826 
  83   2.0000      -0.301891        -8.2149 
  84   2.0000      -0.287974        -7.8362 
  85   2.0000      -0.282148        -7.6776 
  86   2.0000      -0.278830        -7.5874 
  87   2.0000      -0.276620        -7.5272 
  88   2.0000      -0.258447        -7.0327 
  89   2.0000      -0.237224        -6.4552 
  90   2.0000      -0.230131        -6.2622 
  91   2.0000      -0.227002        -6.1770 
  92   0.0000      -0.058589        -1.5943 
  93   0.0000      -0.026137        -0.7112 
  94   0.0000      -0.021352        -0.5810 
  95   0.0000       0.003881         0.1056 
  96   0.0000       0.015103         0.4110 
  97   0.0000       0.041871         1.1394 
  98   0.0000       0.061252         1.6667 
  99   0.0000       0.070471         1.9176 
 100   0.0000       0.079231         2.1560 
 101   0.0000       0.083639         2.2759 
 102   0.0000       0.084911         2.3106 
*Only the first 10 virtual orbitals were printed.

                    ********************************
                    * MULLIKEN POPULATION ANALYSIS *
                    ********************************

-----------------------
MULLIKEN ATOMIC CHARGES
-----------------------
   0 O :   -0.274499
   1 C :    0.241351
   2 O :   -0.281479
   3 C :    0.174110
   4 C :    0.066864
   5 C :   -0.071326
   6 C :   -0.021867
   7 C :    0.262942
   8 O :   -0.341760
   9 C :    0.177739
  10 C :    0.134189
  11 O :   -0.350264
  12 C :    0.191891
  13 N :   -0.211273
  14 C :    0.126645
  15 N :   -0.182189
  16 C :    0.036909
  17 C :    0.145374
  18 C :   -0.099766
  19 C :   -0.001213
  20 C :    0.006726
  21 C :   -0.093172
  22 C :   -0.127666
  23 C :    0.020400
  24 C :    0.105188
  25 C :   -0.161683
  26 H :    0.010109
  27 H :   -0.002485
  28 H :    0.044172
  29 H :    0.044934
  30 H :    0.016597
  31 H :    0.194451
  32 H :    0.042216
  33 H :    0.053649
  34 H :    0.037340
  35 H :   -0.009712
  36 H :   -0.000255
  37 H :   -0.004070
  38 H :   -0.027259
  39 H :    0.002344
  40 H :    0.048192
  41 H :    0.025778
  42 H :    0.048158
  43 H :    0.003671
Sum of atomic charges:   -0.0000000

--------------------------------
MULLIKEN REDUCED ORBITAL CHARGES
--------------------------------
  0 O s       :     3.717889  s :     3.717889
      pz      :     1.440934  p :     4.539623
      px      :     1.763275
      py      :     1.335414
      dz2     :     0.002049  d :     0.016987
      dxz     :     0.000235
      dyz     :     0.005202
      dx2y2   :     0.005768
      dxy     :     0.003734

  1 C s       :     3.035841  s :     3.035841
      pz      :     0.838534  p :     2.598102
      px      :     0.898168
      py      :     0.861400
      dz2     :     0.008503  d :     0.124705
      dxz     :     0.010134
      dyz     :     0.024764
      dx2y2   :     0.030189
      dxy     :     0.051116

  2 O s       :     3.733684  s :     3.733684
      pz      :     1.700565  p :     4.532710
      px      :     1.588740
      py      :     1.243405
      dz2     :     0.002141  d :     0.015086
      dxz     :     0.001984
      dyz     :     0.002356
      dx2y2   :     0.003699
      dxy     :     0.004906

  3 C s       :     3.020812  s :     3.020812
      pz      :     0.985195  p :     2.737518
      px      :     1.016295
      py      :     0.736028
      dz2     :     0.005434  d :     0.067560
      dxz     :     0.008647
      dyz     :     0.012220
      dx2y2   :     0.022957
      dxy     :     0.018302

  4 C s       :     3.075318  s :     3.075318
      pz      :     1.052891  p :     2.817211
      px      :     0.907795
      py      :     0.856525
      dz2     :     0.003476  d :     0.040607
      dxz     :     0.005435
      dyz     :     0.006514
      dx2y2   :     0.012122
      dxy     :     0.013062

  5 C s       :     3.285261  s :     3.285261
      pz      :     0.960982  p :     2.750881
      px      :     0.834613
      py      :     0.955286
      dz2     :     0.002817  d :     0.035184
      dxz     :     0.003402
      dyz     :     0.006515
      dx2y2   :     0.011534
      dxy     :     0.010916

  6 C s       :     3.257210  s :     3.257210
      pz      :     1.024338  p :     2.732470
      px      :     0.923220
      py      :     0.784912
      dz2     :     0.002604  d :     0.032187
      dxz     :     0.005803
      dyz     :     0.002708
      dx2y2   :     0.011539
      dxy     :     0.009533

  7 C s       :     2.940943  s :     2.940943
      pz      :     0.961797  p :     2.721461
      px      :     0.867601
      py      :     0.892063
      dz2     :     0.005679  d :     0.074654
      dxz     :     0.012046
      dyz     :     0.012058
      dx2y2   :     0.020325
      dxy     :     0.024545

  8 O s       :     3.752395  s :     3.752395
      pz      :     1.785579  p :     4.573246
      px      :     1.212118
      py      :     1.575549
[...]
120:   3144.37   0.000887    4.48  0.000088  ( 0.003552  0.005366  0.006827)
121:   3146.23   0.003353   16.95  0.000333  ( 0.013379  0.012329  0.001277)
122:   3175.82   0.000192    0.97  0.000019  (-0.000546  0.003897 -0.001833)
123:   3186.15   0.002116   10.70  0.000207  (-0.002395 -0.007543 -0.012027)
124:   3195.11   0.004456   22.52  0.000435  ( 0.006038 -0.017712  0.009218)
125:   3201.75   0.001406    7.10  0.000137  (-0.002446 -0.006633 -0.009329)
126:   3202.04   0.000367    1.85  0.000036  ( 0.005161  0.003013 -0.000121)
127:   3210.46   0.000079    0.40  0.000008  ( 0.000438  0.002639  0.000720)
128:   3215.24   0.000399    2.02  0.000039  (-0.001680  0.005643  0.002015)
129:   3231.68   0.000554    2.80  0.000054  ( 0.003212 -0.006117 -0.002407)
130:   3239.52   0.000157    0.79  0.000015  (-0.000425  0.002586  0.002869)
131:   3768.73   0.025257  127.64  0.002091  (-0.042989  0.002852  0.015338)

* The epsilon (eps) is given for a Dirac delta lineshape.
** The dipole moment derivative (T) already includes vibrational overlap.

The first frequency considered to be a vibration is 6
The total number of vibrations considered is 126


--------------------------
THERMOCHEMISTRY AT 298.15K
--------------------------

Temperature         ...   298.15 K
Pressure            ...     1.00 atm
Total Mass          ...   350.37 AMU
Quasi RRHO          ...     True
Cut-Off Frequency   ...     1.00 cm^-1

Throughout the following assumptions are being made:
  (1) The electronic state is orbitally nondegenerate
  (2) There are no thermally accessible electronically excited states
  (3) Hindered rotations indicated by low frequency modes are not
      treated as such but are treated as vibrations and this may
      cause some error
  (4) All equations used are the standard statistical mechanics
      equations for an ideal gas
  (5) All vibrations are strictly harmonic

freq.      15.37  E(vib)   ...       0.57 
freq.      20.16  E(vib)   ...       0.56 
freq.      25.77  E(vib)   ...       0.56 
freq.      49.71  E(vib)   ...       0.52 
freq.      61.79  E(vib)   ...       0.51 
freq.      93.44  E(vib)   ...       0.47 
freq.     100.39  E(vib)   ...       0.46 
freq.     108.51  E(vib)   ...       0.45 
freq.     155.25  E(vib)   ...       0.40 
freq.     169.65  E(vib)   ...       0.38 
freq.     170.73  E(vib)   ...       0.38 
freq.     204.37  E(vib)   ...       0.35 
freq.     209.75  E(vib)   ...       0.34 
freq.     214.21  E(vib)   ...       0.34 
freq.     236.57  E(vib)   ...       0.32 
freq.     252.93  E(vib)   ...       0.30 
freq.     270.32  E(vib)   ...       0.29 
freq.     298.77  E(vib)   ...       0.26 
freq.     313.60  E(vib)   ...       0.25 
freq.     339.23  E(vib)   ...       0.23 
freq.     368.67  E(vib)   ...       0.21 
freq.     370.61  E(vib)   ...       0.21 
freq.     435.60  E(vib)   ...       0.17 
freq.     444.21  E(vib)   ...       0.17 
freq.     452.19  E(vib)   ...       0.16 
freq.     470.13  E(vib)   ...       0.16 
freq.     477.10  E(vib)   ...       0.15 
freq.     490.56  E(vib)   ...       0.15 
freq.     527.75  E(vib)   ...       0.13 
freq.     538.60  E(vib)   ...       0.12 
freq.     546.76  E(vib)   ...       0.12 
freq.     565.32  E(vib)   ...       0.11 
freq.     578.61  E(vib)   ...       0.11 
freq.     599.29  E(vib)   ...       0.10 
freq.     602.38  E(vib)   ...       0.10 
freq.     637.98  E(vib)   ...       0.09 
freq.     656.11  E(vib)   ...       0.08 
freq.     680.28  E(vib)   ...       0.08 
freq.     700.33  E(vib)   ...       0.07 
freq.     719.27  E(vib)   ...       0.07 
freq.     742.67  E(vib)   ...       0.06 
freq.     757.76  E(vib)   ...       0.06 
freq.     768.03  E(vib)   ...       0.06 
freq.     769.98  E(vib)   ...       0.05 
freq.     796.23  E(vib)   ...       0.05 
freq.     804.61  E(vib)   ...       0.05 
freq.     821.90  E(vib)   ...       0.05 
freq.     841.12  E(vib)   ...       0.04 
freq.     873.82  E(vib)   ...       0.04 
freq.     875.69  E(vib)   ...       0.04 
freq.     876.11  E(vib)   ...       0.04 
freq.     890.56  E(vib)   ...       0.04 
freq.     893.18  E(vib)   ...       0.03 
freq.     898.55  E(vib)   ...       0.03 
freq.     918.12  E(vib)   ...       0.03 
freq.     929.05  E(vib)   ...       0.03 
freq.     971.58  E(vib)   ...       0.03 
freq.     990.92  E(vib)   ...       0.02 
freq.     991.85  E(vib)   ...       0.02 
freq.    1005.20  E(vib)   ...       0.02 
freq.    1013.58  E(vib)   ...       0.02 
freq.    1026.74  E(vib)   ...       0.02 
freq.    1027.64  E(vib)   ...       0.02 
freq.    1045.08  E(vib)   ...       0.02 
freq.    1065.57  E(vib)   ...       0.02 
freq.    1093.99  E(vib)   ...       0.02 
freq.    1099.59  E(vib)   ...       0.02 
freq.    1117.72  E(vib)   ...       0.01 
freq.    1125.78  E(vib)   ...       0.01 
freq.    1143.21  E(vib)   ...       0.01 
freq.    1146.83  E(vib)   ...       0.01 
freq.    1162.39  E(vib)   ...       0.01 
freq.    1181.27  E(vib)   ...       0.01 
freq.    1214.34  E(vib)   ...       0.01 
freq.    1220.80  E(vib)   ...       0.01 
freq.    1228.20  E(vib)   ...       0.01 
freq.    1238.03  E(vib)   ...       0.01 
freq.    1244.65  E(vib)   ...       0.01 
freq.    1280.38  E(vib)   ...       0.01 
freq.    1283.18  E(vib)   ...       0.01 
freq.    1290.48  E(vib)   ...       0.01 
freq.    1313.40  E(vib)   ...       0.01 
freq.    1319.84  E(vib)   ...       0.01 
freq.    1358.90  E(vib)   ...       0.01 
freq.    1370.78  E(vib)   ...       0.01 
freq.    1374.34  E(vib)   ...       0.01 
freq.    1391.65  E(vib)   ...       0.00 
freq.    1396.89  E(vib)   ...       0.00 
freq.    1401.50  E(vib)   ...       0.00 
freq.    1406.44  E(vib)   ...       0.00 
freq.    1414.84  E(vib)   ...       0.00 
freq.    1421.05  E(vib)   ...       0.00 
freq.    1436.78  E(vib)   ...       0.00 
freq.    1444.71  E(vib)   ...       0.00 
freq.    1445.02  E(vib)   ...       0.00 
freq.    1455.64  E(vib)   ...       0.00 
freq.    1467.64  E(vib)   ...       0.00 
freq.    1478.03  E(vib)   ...       0.00 
freq.    1490.48  E(vib)   ...       0.00 
freq.    1516.68  E(vib)   ...       0.00 
freq.    1540.94  E(vib)   ...       0.00 
freq.    1547.61  E(vib)   ...       0.00 
freq.    1598.03  E(vib)   ...       0.00 
freq.    1631.27  E(vib)   ...       0.00 
freq.    1657.55  E(vib)   ...       0.00 
freq.    1670.81  E(vib)   ...       0.00 
freq.    1671.91  E(vib)   ...       0.00 
freq.    1794.42  E(vib)   ...       0.00 
freq.    2996.76  E(vib)   ...       0.00 
freq.    3033.73  E(vib)   ...       0.00 
freq.    3035.09  E(vib)   ...       0.00 
freq.    3084.44  E(vib)   ...       0.00 
freq.    3100.70  E(vib)   ...       0.00 
freq.    3103.61  E(vib)   ...       0.00 
freq.    3144.37  E(vib)   ...       0.00 
freq.    3146.23  E(vib)   ...       0.00 
freq.    3175.82  E(vib)   ...       0.00 
freq.    3186.15  E(vib)   ...       0.00 
freq.    3195.11  E(vib)   ...       0.00 
freq.    3201.75  E(vib)   ...       0.00 
freq.    3202.04  E(vib)   ...       0.00 
freq.    3210.46  E(vib)   ...       0.00 
freq.    3215.24  E(vib)   ...       0.00 
freq.    3231.68  E(vib)   ...       0.00 
freq.    3239.52  E(vib)   ...       0.00 
freq.    3768.73  E(vib)   ...       0.00 

------------
INNER ENERGY
------------

The inner energy is: U= E(el) + E(ZPE) + E(vib) + E(rot) + E(trans)
    E(el)   - is the total energy from the electronic structure calculation
              = E(kin-el) + E(nuc-el) + E(el-el) + E(nuc-nuc)
    E(ZPE)  - the the zero temperature vibrational energy from the frequency calculation
    E(vib)  - the the finite temperature correction to E(ZPE) due to population
              of excited vibrational states
    E(rot)  - is the rotational thermal energy
    E(trans)- is the translational thermal energy

Summary of contributions to the inner energy U:
Electronic energy                ...  -1181.96941867 Eh
Zero point energy                ...      0.34884948 Eh     218.91 kcal/mol
Thermal vibrational correction   ...      0.01861993 Eh      11.68 kcal/mol
Thermal rotational correction    ...      0.00141627 Eh       0.89 kcal/mol
Thermal translational correction ...      0.00141627 Eh       0.89 kcal/mol
-----------------------------------------------------------------------
Total thermal energy                  -1181.59911672 Eh


Summary of corrections to the electronic energy:
(perhaps to be used in another calculation)
Total thermal correction                  0.02145247 Eh      13.46 kcal/mol
Non-thermal (ZPE) correction              0.34884948 Eh     218.91 kcal/mol
-----------------------------------------------------------------------
Total correction                          0.37030195 Eh     232.37 kcal/mol


--------
ENTHALPY
--------

The enthalpy is H = U + kB*T
                kB is Boltzmann's constant
Total thermal energy              ...  -1181.59911672 Eh 
Thermal Enthalpy correction       ...      0.00094421 Eh       0.59 kcal/mol
-----------------------------------------------------------------------
Total Enthalpy                    ...  -1181.59817251 Eh


Note: Only C1 symmetry has been detected, increase convergence thresholds 
      if your molecule has a higher symmetry. Symmetry factor of 1.0 is   
      used for the rotational entropy correction. 
 

Note: Rotational entropy computed according to Herzberg 
Infrared and Raman Spectra, Chapter V,1, Van Nostrand Reinhold, 1945 
Point Group:  C1, Symmetry Number:   1  
Rotational constants in cm-1:     0.010962     0.003627     0.002923 

Vibrational entropy computed according to the QRRHO of S. Grimme
Chem.Eur.J. 2012 18 9955 using a reference frequency of 100.0 cm-1


-------
ENTROPY
-------

The entropy contributions are T*S = T*(S(el)+S(vib)+S(rot)+S(trans))
     S(el)   - electronic entropy
     S(vib)  - vibrational entropy
     S(rot)  - rotational entropy
     S(trans)- translational entropy
The entropies will be listed as multiplied by the temperature to get
units of energy

Electronic entropy                ...      0.00000000 Eh      0.00 kcal/mol
Vibrational entropy               ...      0.03300343 Eh     20.71 kcal/mol
Rotational entropy                ...      0.01704901 Eh     10.70 kcal/mol
Translational entropy             ...      0.02064701 Eh     12.96 kcal/mol
-----------------------------------------------------------------------
Final entropy term                ...      0.07069945 Eh     44.36 kcal/mol

In case the symmetry of your molecule has not been determined correctly
or in case you have a reason to use a different symmetry number we print 
out the resulting rotational entropy values for sn=1,12:

 non-linear molecules -----------------------------------
|  sn= 1 | S(rot)=       0.01704901 Eh     10.70 kcal/mol|
|  sn= 2 | S(rot)=       0.01639455 Eh     10.29 kcal/mol|
|  sn= 3 | S(rot)=       0.01601172 Eh     10.05 kcal/mol|
|  sn= 4 | S(rot)=       0.01574009 Eh      9.88 kcal/mol|
|  sn= 5 | S(rot)=       0.01552941 Eh      9.74 kcal/mol|
|  sn= 6 | S(rot)=       0.01535726 Eh      9.64 kcal/mol|
|  sn= 7 | S(rot)=       0.01521172 Eh      9.55 kcal/mol|
|  sn= 8 | S(rot)=       0.01508564 Eh      9.47 kcal/mol|
|  sn= 9 | S(rot)=       0.01497443 Eh      9.40 kcal/mol|
|  sn=10 | S(rot)=       0.01487495 Eh      9.33 kcal/mol|
|  sn=11 | S(rot)=       0.01478496 Eh      9.28 kcal/mol|
|  sn=12 | S(rot)=       0.01470281 Eh      9.23 kcal/mol|
 linear molecules ---------------------------------------
|  Dinfh | S(rot)=       0.01083526 Eh      6.80 kcal/mol|
|  Cinfv | S(rot)=       0.01148972 Eh      7.21 kcal/mol|
 --------------------------------------------------------


-------------------
GIBBS FREE ENERGY
-------------------

The Gibbs free energy is G = H - T*S

Total enthalpy                    ...  -1181.59817251 Eh 
Total entropy correction          ...     -0.07069945 Eh    -44.36 kcal/mol
-----------------------------------------------------------------------
Final Gibbs free energy         ...  -1181.66887196 Eh

For completeness - the Gibbs free energy minus the electronic energy
G-E(el)                           ...      0.30054671 Eh    188.60 kcal/mol


Maximum memory used throughout the entire PROP-calculation: 285.4 MB

--------------------------------
SUGGESTED CITATIONS FOR THIS RUN
--------------------------------

Below you find a list of papers that are relevant to this ORCA run
We neither can nor want to force you to cite these papers, but we appreciate if you do
You receive ORCA, which is the product of decades of hard work by many enthusiastic individuals, for free
The only thing we kindly ask in return is that you cite our papers,
We deeply appreciate it, if you show your appreciation for ORCA by not just citing the generic ORCA reference.

Please note that relegating all ORCA citations to the supporting information does *not* help us.
SI sections are not indexed - citations you put there will not count into any citation statistics
But we need these citations in order to attract the funding resources that allow us to do what we are doing

Therefore, if you are a happy ORCA user, please consider citing a few of the papers listed below in the main body of your paper

In addition to the list printed below, the program has created the file D:\Makaleler\coumarin-logp-working-source\dft\molecules\CMR_GOLD_029\input\CMR_GOLD_029_optfreq.bibtex that contains the list in bibtex format
You can import this file easily into all common literature databanks and citation aid programs

It goes without saying that in many instances, there are alternative algorithms to achieve similar
results as the ones you have gotten from ORCA. It is, of course, also the case that in some instances
ORCA just re-implements algorithms worked out by others. We are fully aware of that and we are also
fully appreciative of our colleagues work. Hence this citation list should not be read as indicating
that the listed papers, which are focused on our own work, are the only ones worth citing. It simply
meant to make it easier for users to cite ORCA specific papers. It is not a substitute for doing your
own literature research and citing the relevant literature in a scientifically appropriate manner.

List of essential papers. We consider these as the minimum necessary citations

  1. Neese, F.
     Software update: the ORCA program system, version 6.0
     WIRES Comput. Molec. Sci. 2025 15(1), e70019
     doi.org/10.1002/wcms.70019

List of papers to cite with high priority. The work reported in these papers was absolutely
necessary for this run to complete.
Our perspective: the developers of density functionals and basis sets usually get cited in chemistry papers
Good! But without the algorithms to do something with them, the functionals or basis sets would not do anything.
Hence, in our opinion, the algorithm design and method developments papers are equally worthy of getting cited

  1. Neese, F.
     An improvement of the resolution of the identity approximation for the formation of the Coulomb matrix
     J. Comp. Chem. 2003 24(14), 1740-1747
     doi.org/10.1002/jcc.10318
  2. Neese, F.; Wennmohs, F.; Hansen, A.; Becker, U.
     Efficient, approximate and parallel Hartree-Fock and hybrid DFT calculations. A 'chain-of-spheres' algorithm for the Hartree-Fock exchange
     Chem. Phys. 2009 356(1-3), 98-109
     doi.org/10.1016/j.chemphys.2008.10.036
  3. Grimme, S.; Antony, J.; Ehrlich, S.; Krieg, H.
     A consistent and accurate ab initio parametrization of density functional dispersion correction (DFT-D) for the 94 elements H-Pu
     J. Chem. Phys. 2010 132 , 154104
     doi.org/10.1063/1.3382344
  4. Grimme, S.; Ehrlich, S.; Goerigk, L.
     Effect of the damping function in dispersion corrected density functional theory
     J. Comput. Chem. 2011 32(7), 1456-1465
     doi.org/10.1002/jcc.21759
  5. Bykov, D.; Petrenko, T.; Izsak, R.; Kossmann, S.; Becker, U.; Valeev, E.; Neese, F.
     Efficient implementation of the analytic second derivatives of Hartree-Fock and hybrid DFT energies: a detailed analysis of different approximations
     Molec. Phys. 2015 113 , 1961-1977
     doi.org/10.1080/00268976.2015.1025114
  6. Garcia-Rates, M.; Neese, F.
     Efficient implementation of the analytical second derivatives of hartree-fock and hybrid DFT energies within the framework of the conductor-like polarizable continuum model
     J. Comput. Chem. 2019 40 , 1816-1828
     doi.org/10.1002/jcc.25833
  7. Garcia-Rates, M.; Neese, F.
     Effect of the Solute Cavity on the Solvation Energy and its Derivatives within the Framework of the Gaussian Charge Scheme
     J. Comput. Chem. 2020 41 , 922-939
     doi.org/10.1002/jcc.26139
  8. Helmich-Paris, B.; de Souza, B.; Neese, F.; Izsák, R.
     An improved chain of spheres for exchange algorithm
     J. Chem. Phys. 2021 155(10), 104109
     doi.org/10.1063/5.0058766
  9. Neese, F.
     The SHARK Integral Generation and Digestion System
     J. Comp. Chem. 2022 44(3), 381
     doi.org/10.1002/jcc.26942

List of suggested additional citations. These are papers that are important in the 'surrounding' of 
of this run, or papers that preceded the highly important papers. If you like your results we are grateful for a citation.

  1. Izsak, R.; Neese, F.
     An overlap fitted chain of spheres exchange method
     J. Chem. Phys. 2011 135 , 144105
     doi.org/10.1063/1.3646921
  2. Izsak, R.; Hansen, A.; Neese, F.
     The resolution of identity and chain of spheres approximations for the LPNO-CCSD singles Fock term
     Molec. Phys. 2012 110 , 2413-2417
     doi.org/10.1080/00268976.2012.687466
  3. Neese, F.
     The ORCA program system
     WIRES Comput. Molec. Sci. 2012 2(1), 73-78
     doi.org/10.1002/wcms.81
  4. Izsak, R.; Neese, F.; Klopper, W.
     Robust fitting techniques in the chain of spheres approximation to the Fock exchange: The role of the complementary space
     J. Chem. Phys. 2013 139 , 
     doi.org/10.1063/1.4819264
  5. Neese, F.
     Software update: the ORCA program system, version 4.0
     WIRES Comput. Molec. Sci. 2018 8(1), 1-6
     doi.org/10.1002/wcms.1327
  6. Neese, F.; Wennmohs, F.; Becker, U.; Riplinger, C.
     The ORCA quantum chemistry program package
     J. Chem. Phys. 2020 152(22), 224108
     doi.org/10.1063/5.0004608
  7. Neese, F.
     Software update: The ORCA program system—Version 5.0
     WIRES Comput. Molec. Sci. 2022 12(1), e1606
     doi.org/10.1002/wcms.1606

List of optional additional citations

  1. Neese, F.
     Approximate second-order SCF convergence for spin unrestricted wavefunctions
     Chem. Phys. Lett. 2000 325(1-3), 93-98
     doi.org/10.1016/s0009-2614(00)00662-x

Timings for individual modules:

Sum of individual times          ...     1594.237 sec (=  26.571 min)
Startup calculation              ...       31.379 sec (=   0.523 min)   2.0 %
SCF iterations                   ...      484.493 sec (=   8.075 min)  30.4 %
Property integrals               ...      193.165 sec (=   3.219 min)  12.1 %
SCF Response                     ...      360.971 sec (=   6.016 min)  22.6 %
Property calculations            ...      279.598 sec (=   4.660 min)  17.5 %
SCF Gradient evaluation          ...      244.124 sec (=   4.069 min)  15.3 %
Geometry relaxation              ...        0.507 sec (=   0.008 min)   0.0 %
                             ****ORCA TERMINATED NORMALLY****
TOTAL RUN TIME: 0 days 0 hours 26 minutes 40 seconds 504 msec
