
                                 *****************
                                 * O   R   C   A *
                                 *****************

                                            #,                                       
                                            ###                                      
                                            ####                                     
                                            #####                                    
                                            ######                                   
                                           ########,                                 
                                     ,,################,,,,,                         
                               ,,#################################,,                 
                          ,,##########################################,,             
                       ,#########################################, ''#####,          
                    ,#############################################,,   '####,        
                  ,##################################################,,,,####,       
                ,###########''''           ''''###############################       
              ,#####''   ,,,,##########,,,,          '''####'''          '####       
            ,##' ,,,,###########################,,,                        '##       
           ' ,,###''''                  '''############,,,                           
         ,,##''                                '''############,,,,        ,,,,,,###''
      ,#''                                            '''#######################'''  
     '                                                          ''''####''''         
             ,#######,   #######,   ,#######,      ##                                
            ,#'     '#,  ##    ##  ,#'     '#,    #''#        ,####,    ,#,          
            ##       ##  ##   ,#'  ##            #'  '#       #'       ,# #          
            ##       ##  #######   ##           ,######,      #####,      #          
            '#,     ,#'  ##    ##  '#,     ,#' ,#      #,     #,   #      #          
             '#######'   ##     ##  '#######'  #'      '#     '####' #    #          



                #########################################################
                #                        -***-                          #
                #          Department of theory and spectroscopy        #
                #                                                       #
                #                      Frank Neese                      #
                #                                                       #
                #     Directorship, Architecture, Infrastructure        #
                #                    SHARK, DRIVERS                     #
                #        Core code/Algorithms in most modules           #
                #                                                       #
                #        Max Planck Institute fuer Kohlenforschung      #
                #                Kaiser Wilhelm Platz 1                 #
                #                 D-45470 Muelheim/Ruhr                 #
                #                      Germany                          #
                #                                                       #
                #                  All rights reserved                  #
                #                        -***-                          #
                #########################################################


                         Program Version 6.1.1  -  RELEASE   -


 With contributions from (in alphabetic order):
[Max-Planck-Institut fuer Kohlenforschung]                               
  Daniel Aravena         : Magnetic Suceptibility                        
  Michael Atanasov       : Ab Initio Ligand Field Theory (pilot matlab implementation)
  Alexander A. Auer      : GIAO ZORA, VPT2 properties, NMR spectrum      
  Ute Becker             : All parallelization in ORCA, NUMFREQ, NUMCALC 
  Giovanni Bistoni       : ED, misc. LED, open-shell LED, HFLD           
  Dmytro Bykov           : pre 5.0 version of the SCF Hessian            
  Marcos Casanova-Páez   : Triplet and SCS-CIS(D). UHF-(DLPNO)-IP/EA/STEOM-CCSD. UHF-CVS-IP/STEOM-CCSD   
  Vijay G. Chilkuri      : MRCI spin determinant printing, contributions to CSF-ICE 
  Pauline Colinet        : FMM embedding                                 
  Dipayan Datta          : RHF DLPNO-CCSD density                        
  Achintya Kumar Dutta   : EOM-CC, STEOM-CC                              
  Nicolas Foglia         : Exact transition moments, OPA infrastructure, MCD improvements    
  Dmitry Ganyushin       : Spin-Orbit,Spin-Spin,Magnetic field MRCI      
  Miquel Garcia-Rates    : C-PCM and meta-GGA Hessian, CCSD/C-PCM, Gaussian charge scheme 
  Tiago L. C. Gouveia    : GS-ROHF, GS-ROCIS                             
  Yang Guo               : DLPNO-NEVPT2, F12-NEVPT2, CIM, IAO-localization        
  Andreas Hansen         : Spin unrestricted coupled pair/coupled cluster methods 
  Ingolf Harden          : AUTO-CI MPn and infrastructure                
  Benjamin Helmich-Paris : MC-RPA, TRAH-(SCF,CASSCF), AVAS, COSX integrals, SCF dyn. polar., MC-PDFT, srDFT 
  Lee Huntington         : MR-EOM, pCC                                   
  Robert Izsak           : Overlap fitted RIJCOSX, COSX-SCS-MP3, EOM     
  Riya Kayal             : Wick's Theorem for AUTO-CI, AUTO-CI UHF-CCSDT 
  Emily Kempfer          : AUTO-CI RHF CISDT and CCSDT, approximate NEVPT4
  Christian Kollmar      : KDIIS, OOCD, Brueckner-CCSD(T), CCSD density, CASPT2, CASPT2-K, improved NEVPT2 
  Axel Koslowski         : Symmetry handling                             
  Simone Kossmann        : meta-GGA functionals, TD-DFT gradient, OOMP2, (MP2 Hessian; deprecated post 5.0) 
  Lucas Lang             : DCDCAS, Hyperfine gauge corrections, ICE-SOC+SSC
  Marvin Lechner         : AUTO-CI (C++ implementation), FIC-MRCC        
  Spencer Leger          : CASSCF response                               
  Dagmar Lenk            : GEPOL surface, SMD, ORCA-2-JSON               
  Dimitrios Liakos       : Extrapolation schemes; Compound Job, Property file
  Dimitrios Manganas     : Further ROCIS development; embedding schemes. LFT, Crystal Embedding 
  Dimitrios Pantazis     : SARC Basis sets                               
  Anastasios Papadopoulos: AUTO-CI, single reference methods and gradients 
  Taras Petrenko         : pre 6.0 DFT Hessian and TD-DFT gradient,  ECA, NRVS 
  Petra Pikulova         : Analytic Raman intensities                    
  Peter Pinski           : DLPNO-MP2, DLPNO-MP2 Gradient                 
  Shashank Vittal Rao    : ES-AILFT, MagRelax                            
  Christoph Reimann      : Effective Core Potentials                     
  Marius Retegan         : Local ZFS, SOC                                
  Christoph Riplinger    : Optimizer, TS searches, QM/MM, DLPNO-CCSD(T), (RO)-DLPNO pert. Triples 
  Michael Roemelt        : Original ROCIS implementation, recursive CI coupling coefficients
  Masaaki Saitow         : Open-shell DLPNO-CCSD energy and density      
  Barbara Sandhoefer     : DKH picture change effects                    
  Yorick L. A. Schmerwitz: GMF and freeze-and-release deltaSCF, NEB S-IDPP initial path                    
  Kantharuban Sivalingam : CASSCF convergence/infrastructure, NEVPT2, NEVPT3, NEVPT4(SD), FIC-MRCI and CEPA variants
  Bernardo de Souza      : ESD, SOC TD-DFT                               
  Georgi L. Stoychev     : AutoAux, RI-MP2 NMR, DLPNO-MP2 response, X2C  
  Van Anh Tran           : RI-MP2 g-tensors                              
  Willem Van den Heuvel  : Paramagnetic NMR                              
  Zikuan Wang            : NOTCH, Electric field optimization            
  Frank Wennmohs         : Technical directorship and infrastructure     
  Hang Xu                : AUTO-CI-Response properties                   
                                                                         
[FACCTs GmbH]                                                            
  Markus Bursch, Nicolas Foglia, Miquel Garcia-Rates, Ingolf Harden, Hagen Neugebauer, Anastasios Papadopoulos, 
  Christoph Riplinger, Bernardo de Souza, Georgi L. Stoychev                                                    
                                                                 
  APM, various basis sets, CI-OPT, improved COSX, DLPNO-Multilevel,           
  DOCKER, DRACO, updates on ESD, Fragmentator, GOAT, IRC, LR-CPCM, L-BFGS, MBIS, meta-GGA TD-DFT gradient, ML-optimized integration grids, 
  MM, NACMEs, nearIR, NEB, NEB-TS, NL-DFT gradient (VV10), 2- and 3-layer-ONIOM, interface openCOSMO-RS, QMMM,   
  Crystal-QMMM, RESP, rigid body optimization, SF, symmetry and pop. for TD-DFT, various functionals, SOLVATOR                                   
                                                                         
[Other institutions]                                                     
  V. Asgeirsson          : NEB                                           
  Christoph Bannwarth    : sTDA-DFT, sTD-DFT, PBEh-3c, B97-3c, D3        
  Giovanni Bistoni       : ETS/NOCV, ADLD/ADEX, COVALED                  
  Martin Brehm           : Molecular dynamics                            
  Ronald Cardenas        : ETS/NOCV                                      
  Martina Colucci        : COVALED                                       
  Sebastian Ehlert       : rSCAN, r2SCAN, r2SCAN-3c, D4, dhf basis sets  
  Marvin Friede          : D4 for Fr, Ra, Ac-Lr                          
  Lars Goerigk           : TD-DFT with DH, B97 family of functionals     
  Stefan Grimme          : VdW corrections, initial TS optimization, DFT functionals, gCP, sTDA/sTD-DF 
  Waldemar Hujo          : DFT-NL                                        
  H. Jonsson             : NEB                                           
  Holger Kruse           : gCP                                           
  Marcel Mueller         : wB97X-3c, vDZP basis set                      
  Hagen Neugebauer       : wr2SCAN, Native XTB                           
  Gianluca Regni         : ADLD/ADEX                                     
  Tobias Risthaus        : pre 6.0 range-separated hybrid DFT and stability analysis
  Lukas Wittmann         : regularized MP2, r2SCAN double-hybrids, wr2SCAN        
                                                                         
We gratefully acknowledge several colleagues who have allowed us to      
interface, adapt or use parts of their codes:                            
  Ed Valeev, F. Pavosevic, A. Kumar             : LibInt (2-el integral package), F12 methods 
  Garnet Chan, S. Sharma, J. Yang, R. Olivares  : DMRG                   
  Ulf Ekstrom                                   : XCFun DFT Library      
  Mihaly Kallay                                 : mrcc  (arbitrary order and MRCC methods)
  Frank Weinhold                                : gennbo (NPA and NBO analysis)           
  Simon Mueller                                 : openCOSMO-RS                            
  Christopher J. Cramer and Donald G. Truhlar   : smd solvation model                     
  S Lehtola, MJT Oliveira, MAL Marques          : LibXC Library                           
  Liviu Ungur et al                             : ANISO software                          


 Your calculation uses the libint2 library for the computation of 2-el integrals
 For citations please refer to: http://libint.valeyev.net

 Your ORCA version has been built with support for libXC version: 7.0.0
 For citations please refer to: https://libxc.gitlab.io

 This ORCA versions uses:
   CBLAS   interface :  Fast vector & matrix operations
   LAPACKE interface :  Fast linear algebra routines
   Shared memory     :  Shared parallel matrices


  ***********************************
  * Starting time: Thu Jun  4 21:44:06 2026
  * Host name:     AHMET
  * Process ID:    33788
  * Working dir.:  D:\Makaleler\coumarin-logp-working-source\dft\molecules\CMR_GOLD_092
  ***********************************

NOTE: MaxCore=3000 MB was set to SCF,MP2,MDCI,CIPSI,MRCI,RASCI and CIS
      => If you want to overwrite this, your respective input block should be placed after the MaxCore statement


***************************************
The coordinates will be read from file: input/CMR_GOLD_092_start.xyz
***************************************


Your calculation utilizes the atom-pairwise dispersion correction
with the Becke-Johnson damping scheme (D3BJ)


================================================================================

----- Orbital basis set information -----
Your calculation utilizes the basis: def2-SVP
   F. Weigend and R. Ahlrichs, Phys. Chem. Chem. Phys. 7, 3297 (2005).

----- AuxJ basis set information -----
Your calculation utilizes the auxiliary basis: def2/J
   H-Rn: F. Weigend, Phys. Chem. Chem. Phys. 8, 1057 (2006).
   Fr-Lr: K. Eichkorn, F. Weigend, O. Treutler, R. Ahlrichs; Theor. Chem. Acc. 97, 119 (1997).

================================================================================
                                        WARNINGS
                       Please study these warnings very carefully!
================================================================================


WARNING: Geometry Optimization
  ===> : Switching off AutoStart
         For restart on a previous wavefunction, please use MOREAD

================================================================================
                                       INPUT FILE
================================================================================
NAME = input\CMR_GOLD_092_optfreq.inp
|  1> ! B3LYP D3BJ def2-SVP TightSCF RIJCOSX def2/J CPCM(Water) Opt Freq
|  2> 
|  3> %pal
|  4>   nprocs 8
|  5> end
|  6> 
|  7> %maxcore 3000
|  8> 
|  9> %scf
| 10>   MaxIter 500
| 11> end
| 12> 
| 13> %output
| 14>   Print[P_Mulliken] 1
| 15>   Print[P_Loewdin] 1
| 16> end
| 17> 
| 18> * xyzfile 0 1 input/CMR_GOLD_092_start.xyz
| 19> 
| 20>                          ****END OF INPUT****
================================================================================

                       *****************************
                       * Geometry Optimization Run *
                       *****************************

Geometry optimization settings:
Update method            Update   .... BFGS
Choice of coordinates    CoordSys .... (2022) Redundant Internals
Initial Hessian          InHess   .... Almloef's Model
Max. no of cycles        MaxIter  .... 156

Convergence Tolerances:
Energy Change            TolE     ....  5.0000e-06 Eh
Max. Gradient            TolMAXG  ....  3.0000e-04 Eh/bohr
RMS Gradient             TolRMSG  ....  1.0000e-04 Eh/bohr
Max. Displacement        TolMAXD  ....  4.0000e-03 bohr
RMS Displacement         TolRMSD  ....  2.0000e-03 bohr
Strict Convergence                .... False

------------------------------------------------------------------------------
                        ORCA OPTIMIZATION COORDINATE SETUP
------------------------------------------------------------------------------

The optimization will be done in redundant internal coordinates (2022)
Making redundant internal coordinates   ...  (2022 redundants) done
Evaluating the initial hessian          ...  (Almloef) done
Evaluating the coordinates              ...  done
Calculating the B-matrix                .... done
Calculating the G-matrix                .... done
The number of degrees of freedom        ....  266

    -----------------------------------------------------------------
                    Redundant Internal Coordinates


    -----------------------------------------------------------------
         Definition                    Initial Value    Approx d2E/dq
    -----------------------------------------------------------------
      1. B(C   1,O   0)                  1.2236         1.031263   
      2. B(C   2,C   1)                  1.4863         0.438659   
      3. B(C   3,C   2)                  1.4906         0.431820   
      4. B(C   4,C   3)                  1.4648         0.474677   
      5. B(C   5,C   4)                  1.3832         0.640640   
      6. B(C   6,C   5)                  1.3943         0.615057   
      7. B(C   7,C   6)                  1.3949         0.613614   
      8. B(C   8,C   7)                  1.3962         0.610663   
      9. B(C   9,C   8)                  1.3968         0.609376   
     10. B(C   9,C   4)                  1.3990         0.604582   
     11. B(O  10,C   5)                  1.4006         0.538139   
     12. B(O  10,C   1)                  1.3922         0.555130   
     13. B(O  11,C   3)                  1.2280         1.014598   
     14. B(C  12,C   2)                  1.3609         0.695383   
     15. B(C  13,C  12)                  1.4831         0.443855   
     16. B(C  14,C  13)                  1.4017         0.598607   
     17. B(C  15,C  14)                  1.3959         0.611301   
     18. B(C  16,C  15)                  1.3946         0.614333   
     19. B(C  17,C  16)                  1.3945         0.614459   
     20. B(C  18,C  17)                  1.3959         0.611367   
     21. B(C  18,C  13)                  1.4019         0.598093   
     22. B(N  19,C  12)                  1.3990         0.541318   
     23. B(C  20,N  19)                  1.4544         0.441689   
     24. B(C  21,C  20)                  1.5089         0.403709   
     25. B(C  22,C  21)                  1.3991         0.604307   
     26. B(C  23,C  22)                  1.3994         0.603582   
     27. B(C  24,C  23)                  1.3999         0.602530   
     28. B(O  25,C  24)                  1.3698         0.602652   
     29. B(C  26,O  25)                  1.4211         0.499234   
     30. B(C  27,C  24)                  1.4055         0.590137   
     31. B(O  28,C  27)                  1.3733         0.595036   
     32. B(C  29,O  28)                  1.4250         0.492041   
     33. B(C  30,C  27)                  1.4005         0.601229   
     34. B(C  30,C  21)                  1.3993         0.603866   
     35. B(H  31,C   6)                  1.0870         0.364100   
     36. B(H  32,C   7)                  1.0878         0.363067   
     37. B(H  33,C   8)                  1.0879         0.362942   
     38. B(H  34,C   9)                  1.0885         0.362125   
     39. B(H  35,C  14)                  1.0870         0.364153   
     40. B(H  36,C  15)                  1.0867         0.364515   
     41. B(H  37,C  16)                  1.0869         0.364229   
     42. B(H  38,C  17)                  1.0866         0.364599   
     43. B(H  39,C  18)                  1.0870         0.364111   
     44. B(H  40,O  11)                  1.8441         0.020201   
     45. B(H  40,N  19)                  1.0289         0.403712   
     46. B(H  41,C  20)                  1.0965         0.351624   
     47. B(H  42,C  20)                  1.0964         0.351748   
     48. B(H  43,C  22)                  1.0885         0.362071   
     49. B(H  44,C  23)                  1.0848         0.367075   
     50. B(H  45,C  26)                  1.0948         0.353785   
     51. B(H  46,C  26)                  1.0943         0.354445   
     52. B(H  47,C  26)                  1.0951         0.353457   
     53. B(H  48,C  29)                  1.0946         0.354095   
     54. B(H  49,C  29)                  1.0961         0.352183   
     55. B(H  50,C  29)                  1.0938         0.355087   
     56. B(H  51,C  30)                  1.0879         0.362923   
     57. A(O   0,C   1,C   2)          125.2201         0.444074   
     58. A(C   2,C   1,O  10)          115.3023         0.397631   
     59. A(O   0,C   1,O  10)          119.4752         0.460430   
     60. A(C   3,C   2,C  12)          117.6501         0.415307   
     61. A(C   1,C   2,C  12)          123.2993         0.416469   
     62. A(C   1,C   2,C   3)          119.0248         0.382993   
     63. A(C   4,C   3,O  11)          119.5944         0.449142   
     64. A(C   2,C   3,C   4)          116.5143         0.388291   
     65. A(C   2,C   3,O  11)          123.8860         0.441511   
     66. A(C   3,C   4,C   9)          120.9054         0.411978   
     67. A(C   3,C   4,C   5)          119.4081         0.416241   
     68. A(C   5,C   4,C   9)          119.6807         0.434657   
     69. A(C   4,C   5,C   6)          120.9884         0.436004   
     70. A(C   4,C   5,O  10)          122.0859         0.422898   
     71. A(C   6,C   5,O  10)          116.8907         0.419832   
     72. A(C   5,C   6,H  31)          120.3962         0.353091   
     73. A(C   7,C   6,H  31)          120.1808         0.352950   
     74. A(C   5,C   6,C   7)          119.4212         0.432635   
     75. A(C   6,C   7,H  32)          119.9981         0.352781   
     76. A(C   6,C   7,C   8)          120.0311         0.432078   
     77. A(C   8,C   7,H  32)          119.9699         0.352493   
     78. A(C   7,C   8,H  33)          120.0259         0.352472   
     79. A(C   7,C   8,C   9)          120.0518         0.431540   
     80. A(C   9,C   8,H  33)          119.9223         0.352347   
     81. A(C   4,C   9,C   8)          119.8256         0.430765   
     82. A(C   4,C   9,H  34)          120.4347         0.351742   
     83. A(C   8,C   9,H  34)          119.7390         0.352212   
     84. A(C   1,O  10,C   5)          123.7059         0.409585   
     85. A(C  13,C  12,N  19)          114.2495         0.396695   
     86. A(C   2,C  12,C  13)          120.9937         0.417343   
     87. A(C   2,C  12,N  19)          124.6415         0.429606   
     88. A(C  14,C  13,C  18)          119.3727         0.428558   
     89. A(C  12,C  13,C  18)          119.9296         0.406331   
     90. A(C  12,C  13,C  14)          120.6661         0.406393   
     91. A(C  13,C  14,H  35)          120.2637         0.351484   
     92. A(C  13,C  14,C  15)          120.2245         0.430241   
     93. A(C  15,C  14,H  35)          119.5092         0.352733   
     94. A(C  16,C  15,H  36)          120.0420         0.353088   
     95. A(C  14,C  15,H  36)          119.9136         0.352793   
     96. A(C  14,C  15,C  16)          120.0429         0.432250   
     97. A(C  15,C  16,H  37)          119.9237         0.353041   
     98. A(C  15,C  16,C  17)          120.0926         0.432651   
     99. A(C  17,C  16,H  37)          119.9833         0.353054   
    100. A(C  18,C  17,H  38)          119.9884         0.352813   
    101. A(C  16,C  17,H  38)          119.9977         0.353114   
    102. A(C  16,C  17,C  18)          120.0139         0.432274   
    103. A(C  13,C  18,C  17)          120.2508         0.430183   
    104. A(C  13,C  18,H  39)          120.2193         0.351426   
    105. A(C  17,C  18,H  39)          119.5275         0.352733   
    106. A(C  20,N  19,H  40)          112.6221         0.334855   
    107. A(C  12,N  19,H  40)          112.3500         0.346438   
    108. A(C  12,N  19,C  20)          126.4594         0.393826   
    109. A(C  21,C  20,H  41)          110.0632         0.327199   
    110. A(H  41,C  20,H  42)          107.4065         0.288691   
    111. A(C  21,C  20,H  42)          108.5645         0.327219   
    112. A(N  19,C  20,H  42)          111.4086         0.330115   
    113. A(N  19,C  20,H  41)          110.0868         0.330096   
    114. A(N  19,C  20,C  21)          109.2813         0.376613   
    115. A(C  22,C  21,C  30)          118.6078         0.430028   
    116. A(C  20,C  21,C  30)          120.8275         0.400271   
    117. A(C  20,C  21,C  22)          120.5457         0.400322   
    118. A(C  23,C  22,H  43)          119.4769         0.351635   
    119. A(C  21,C  22,H  43)          119.7954         0.351706   
    120. A(C  21,C  22,C  23)          120.7277         0.429992   
    121. A(C  24,C  23,H  44)          121.8343         0.352348   
    122. A(C  22,C  23,H  44)          117.4247         0.352452   
    123. A(C  22,C  23,C  24)          120.7409         0.429765   
    124. A(O  25,C  24,C  27)          117.3811         0.425257   
    125. A(C  23,C  24,C  27)          118.5967         0.428032   
    126. A(C  23,C  24,O  25)          124.0187         0.426843   
    127. A(C  24,O  25,C  26)          117.6848         0.410100   
    128. A(H  46,C  26,H  47)          107.6411         0.289272   
    129. A(H  45,C  26,H  47)          111.3019         0.289187   
    130. A(O  25,C  26,H  47)          111.3216         0.337165   
    131. A(H  45,C  26,H  46)          107.6095         0.289314   
    132. A(O  25,C  26,H  46)          107.7426         0.337321   
    133. A(O  25,C  26,H  45)          111.0245         0.337217   
    134. A(O  28,C  27,C  30)          114.1765         0.425707   
    135. A(C  24,C  27,C  30)          120.3712         0.427866   
    136. A(C  24,C  27,O  28)          125.3825         0.424291   
    137. A(C  27,O  28,C  29)          114.2693         0.408127   
    138. A(H  49,C  29,H  50)          111.0210         0.289190   
    139. A(H  48,C  29,H  50)          107.3908         0.289436   
    140. A(O  28,C  29,H  50)          110.2886         0.336609   
    141. A(H  48,C  29,H  49)          107.5264         0.289063   
    142. A(O  28,C  29,H  49)          112.8085         0.336149   
    143. A(O  28,C  29,H  48)          107.5572         0.336452   
    144. A(C  21,C  30,C  27)          120.8915         0.429634   
    145. A(C  27,C  30,H  51)          118.8784         0.351543   
    146. A(C  21,C  30,H  51)          120.2253         0.351803   
    147. D(C  12,C   2,C   1,O   0)    -24.9015         0.013132   
    148. D(C   3,C   2,C   1,O  10)    -22.4339         0.013132   
    149. D(C   3,C   2,C   1,O   0)    156.9918         0.013132   
    150. D(C  12,C   2,C   1,O  10)    155.6729         0.013132   
    151. D(O  11,C   3,C   2,C   1)   -158.8767         0.012737   
    152. D(C   4,C   3,C   2,C  12)   -156.2386         0.012737   
    153. D(C   4,C   3,C   2,C   1)     21.9750         0.012737   
    154. D(O  11,C   3,C   2,C  12)     22.9096         0.012737   
    155. D(C   9,C   4,C   3,C   2)    170.1876         0.015341   
    156. D(C   5,C   4,C   3,C   2)     -8.9311         0.015341   
    157. D(C   5,C   4,C   3,O  11)    171.8821         0.015341   
    158. D(C   9,C   4,C   3,O  11)     -8.9992         0.015341   
    159. D(O  10,C   5,C   4,C   9)    177.5047         0.028519   
    160. D(O  10,C   5,C   4,C   3)     -3.3656         0.028519   
    161. D(C   6,C   5,C   4,C   3)    178.8536         0.028519   
    162. D(C   6,C   5,C   4,C   9)     -0.2760         0.028519   
    163. D(H  31,C   6,C   5,O  10)      1.6089         0.026152   
    164. D(H  31,C   6,C   5,C   4)    179.5007         0.026152   
    165. D(C   7,C   6,C   5,O  10)   -177.9056         0.026152   
    166. D(C   7,C   6,C   5,C   4)     -0.0138         0.026152   
    167. D(H  32,C   7,C   6,H  31)      0.3929         0.026022   
    168. D(H  32,C   7,C   6,C   5)    179.9084         0.026022   
    169. D(C   8,C   7,C   6,C   5)      0.2576         0.026022   
    170. D(C   8,C   7,C   6,H  31)   -179.2579         0.026022   
    171. D(H  33,C   8,C   7,H  32)      0.1480         0.025758   
    172. D(H  33,C   8,C   7,C   6)    179.7989         0.025758   
    173. D(C   9,C   8,C   7,C   6)     -0.2107         0.025758   
    174. D(C   9,C   8,C   7,H  32)   -179.8616         0.025758   
    175. D(H  34,C   9,C   4,C   3)      0.9092         0.025219   
    176. D(C   8,C   9,C   4,C   5)      0.3214         0.025219   
    177. D(C   8,C   9,C   4,C   3)   -178.7949         0.025219   
    178. D(H  34,C   9,C   8,H  33)      0.2046         0.025643   
    179. D(H  34,C   9,C   8,C   7)   -179.7859         0.025643   
    180. D(C   4,C   9,C   8,H  33)    179.9108         0.025643   
    181. D(C   4,C   9,C   8,C   7)     -0.0797         0.025643   
    182. D(H  34,C   9,C   4,C   5)   -179.9744         0.025219   
    183. D(C   1,O  10,C   5,C   6)   -179.4304         0.020905   
    184. D(C   1,O  10,C   5,C   4)      2.7027         0.020905   
    185. D(C   5,O  10,C   1,C   2)     10.2792         0.022308   
    186. D(C   5,O  10,C   1,O   0)   -169.1818         0.022308   
    187. D(N  19,C  12,C   2,C   3)      0.6730         0.034019   
    188. D(N  19,C  12,C   2,C   1)   -177.4581         0.034019   
    189. D(C  13,C  12,C   2,C   3)    176.5405         0.034019   
    190. D(C  13,C  12,C   2,C   1)     -1.5907         0.034019   
    191. D(C  18,C  13,C  12,N  19)     84.9753         0.013437   
    192. D(C  18,C  13,C  12,C   2)    -91.2963         0.013437   
    193. D(C  14,C  13,C  12,N  19)    -92.9686         0.013437   
    194. D(C  14,C  13,C  12,C   2)     90.7598         0.013437   
    195. D(H  35,C  14,C  13,C  18)   -179.9906         0.024696   
    196. D(H  35,C  14,C  13,C  12)     -2.0353         0.024696   
    197. D(C  15,C  14,C  13,C  18)      0.6020         0.024696   
    198. D(C  15,C  14,C  13,C  12)    178.5573         0.024696   
    199. D(H  36,C  15,C  14,H  35)     -0.1376         0.025815   
    200. D(H  36,C  15,C  14,C  13)    179.2743         0.025815   
    201. D(C  16,C  15,C  14,H  35)   -179.7081         0.025815   
    202. D(C  16,C  15,C  14,C  13)     -0.2962         0.025815   
    203. D(H  37,C  16,C  15,H  36)      0.1406         0.026087   
    204. D(H  37,C  16,C  15,C  14)    179.7105         0.026087   
    205. D(C  17,C  16,C  15,H  36)   -179.6312         0.026087   
    206. D(C  17,C  16,C  15,C  14)     -0.0613         0.026087   
    207. D(H  38,C  17,C  16,C  15)   -179.9251         0.026098   
    208. D(C  18,C  17,C  16,H  37)   -179.6645         0.026098   
    209. D(C  18,C  17,C  16,C  15)      0.1071         0.026098   
    210. D(H  38,C  17,C  16,H  37)      0.3033         0.026098   
    211. D(H  39,C  18,C  17,H  38)      0.7972         0.025821   
    212. D(H  39,C  18,C  17,C  16)   -179.2350         0.025821   
    213. D(C  13,C  18,C  17,H  38)   -179.7634         0.025821   
    214. D(C  13,C  18,C  17,C  16)      0.2044         0.025821   
    215. D(H  39,C  18,C  13,C  14)    178.8792         0.024652   
    216. D(H  39,C  18,C  13,C  12)      0.9086         0.024652   
    217. D(C  17,C  18,C  13,C  14)     -0.5563         0.024652   
    218. D(C  17,C  18,C  13,C  12)   -178.5269         0.024652   
    219. D(H  40,N  19,C  12,C  13)    169.1365         0.023317   
    220. D(H  40,N  19,C  12,C   2)    -14.7485         0.023317   
    221. D(C  20,N  19,C  12,C  13)     23.9627         0.023317   
    222. D(C  20,N  19,C  12,C   2)   -159.9222         0.023317   
    223. D(H  42,C  20,N  19,C  12)    -57.9674         0.016636   
    224. D(H  41,C  20,N  19,H  40)    -84.0172         0.016636   
    225. D(H  41,C  20,N  19,C  12)     61.0781         0.016636   
    226. D(C  21,C  20,N  19,H  40)     36.9741         0.016636   
    227. D(C  21,C  20,N  19,C  12)   -177.9306         0.016636   
    228. D(C  30,C  21,C  20,H  41)     18.6899         0.012086   
    229. D(C  30,C  21,C  20,N  19)   -102.3157         0.012086   
    230. D(C  22,C  21,C  20,H  42)    -45.6221         0.012086   
    231. D(C  22,C  21,C  20,H  41)   -162.9199         0.012086   
    232. D(C  22,C  21,C  20,N  19)     76.0745         0.012086   
    233. D(H  43,C  22,C  21,C  30)    178.5026         0.025195   
    234. D(H  43,C  22,C  21,C  20)      0.0772         0.025195   
    235. D(C  23,C  22,C  21,C  30)     -1.5437         0.025195   
    236. D(C  23,C  22,C  21,C  20)   -179.9692         0.025195   
    237. D(H  44,C  23,C  22,H  43)      0.6905         0.025131   
    238. D(H  44,C  23,C  22,C  21)   -179.2633         0.025131   
    239. D(C  24,C  23,C  22,H  43)   -179.4002         0.025131   
    240. D(C  24,C  23,C  22,C  21)      0.6460         0.025131   
    241. D(C  27,C  24,C  23,H  44)   -178.5182         0.025039   
    242. D(C  27,C  24,C  23,C  22)      1.5765         0.025039   
    243. D(O  25,C  24,C  23,H  44)      2.1763         0.025039   
    244. D(O  25,C  24,C  23,C  22)   -177.7290         0.025039   
    245. D(C  26,O  25,C  24,C  27)   -173.3444         0.026541   
    246. D(C  26,O  25,C  24,C  23)      5.9689         0.026541   
    247. D(H  47,C  26,O  25,C  24)     58.4234         0.019702   
    248. D(H  46,C  26,O  25,C  24)    176.2278         0.019702   
    249. D(H  45,C  26,O  25,C  24)    -66.1740         0.019702   
    250. D(C  30,C  27,C  24,O  25)    176.4576         0.023967   
    251. D(C  30,C  27,C  24,C  23)     -2.8941         0.023967   
    252. D(O  28,C  27,C  24,O  25)     -0.3230         0.023967   
    253. D(O  28,C  27,C  24,C  23)   -179.6748         0.023967   
    254. D(C  29,O  28,C  27,C  30)    134.9579         0.025832   
    255. D(C  29,O  28,C  27,C  24)    -48.0866         0.025832   
    256. D(H  50,C  29,O  28,C  27)     93.6945         0.019122   
    257. D(H  49,C  29,O  28,C  27)    -31.0798         0.019122   
    258. D(H  48,C  29,O  28,C  27)   -149.4852         0.019122   
    259. D(H  51,C  30,C  27,O  28)     -1.6428         0.024925   
    260. D(H  51,C  30,C  27,C  24)   -178.7660         0.024925   
    261. D(C  21,C  30,C  27,O  28)    179.1529         0.024925   
    262. D(C  21,C  30,C  27,C  24)      2.0297         0.024925   
    263. D(H  51,C  30,C  21,C  22)   -178.9811         0.025156   
    264. D(H  51,C  30,C  21,C  20)     -0.5603         0.025156   
    265. D(C  27,C  30,C  21,C  22)      0.2125         0.025156   
    266. D(C  27,C  30,C  21,C  20)    178.6334         0.025156   
    -----------------------------------------------------------------

Number of atoms                         .... 52
Number of degrees of freedom            .... 266


         *************************************************************
         *                GEOMETRY OPTIMIZATION CYCLE   1            *
         *************************************************************
---------------------------------
CARTESIAN COORDINATES (ANGSTROEM)
---------------------------------
  O     -4.306774    0.642192    2.053533
  C     -3.967345    0.066766    1.028423
  C     -2.563150   -0.187957    0.613226
  C     -2.280272   -1.302609   -0.335087
  C     -3.397508   -1.750318   -1.169943
  C     -4.669382   -1.268692   -0.917813
  C     -5.752476   -1.654356   -1.706596
  C     -5.548320   -2.539017   -2.765598
  C     -4.269180   -3.034854   -3.025214
  C     -3.191658   -2.642365   -2.227745
  O     -4.941725   -0.414513    0.158295
  O     -1.181051   -1.836681   -0.455617
  C     -1.512358    0.571660    1.026467
  C     -1.718993    1.745707    1.908755
  C     -1.673927    1.608942    3.302995
  C     -1.839787    2.725445    4.124318
  C     -2.045069    3.983716    3.559062
  C     -2.083828    4.129576    2.172711
  C     -1.919294    3.015062    1.348476
  N     -0.188063    0.388873    0.613980
  C      1.003600    0.869111    1.295605
  C      2.223003    0.498983    0.487651
  C      2.551279    1.211100   -0.671028
  C      3.680934    0.870690   -1.423578
  C      4.499948   -0.198273   -1.041227
  O      5.644076   -0.561339   -1.701204
  C      6.087206    0.273321   -2.762533
  C      4.145316   -0.944217    0.096021
  O      4.848172   -2.012125    0.597497
  C      5.215677   -2.982240   -0.379490
  C      3.029430   -0.581951    0.860787
  H     -6.749341   -1.276238   -1.494839
  H     -6.386887   -2.847312   -3.386078
  H     -4.110637   -3.727324   -3.849101
  H     -2.196016   -3.029332   -2.436858
  H     -1.519225    0.631612    3.752842
  H     -1.815712    2.611773    5.204772
  H     -2.178681    4.850978    4.200426
  H     -2.242657    5.110889    1.733914
  H     -1.938423    3.139714    0.268831
  H     -0.042768   -0.521330    0.156798
  H      1.067992    0.427965    2.297364
  H      0.983207    1.958494    1.417653
  H      1.923287    2.039993   -0.992626
  H      3.891925    1.466262   -2.305348
  H      5.380129    0.254862   -3.598190
  H      7.039233   -0.125918   -3.125527
  H      6.266925    1.296451   -2.416008
  H      5.246645   -3.956671    0.118129
  H      4.492807   -3.053603   -1.200280
  H      6.220864   -2.776701   -0.758682
  H      2.788854   -1.164199    1.747680

----------------------------
CARTESIAN COORDINATES (A.U.)
----------------------------
  NO LB      ZA    FRAG     MASS         X           Y           Z
   0 O     8.0000    0    15.999   -8.138624    1.213567    3.880614
   1 C     6.0000    0    12.011   -7.497195    0.126169    1.943439
   2 C     6.0000    0    12.011   -4.843652   -0.355187    1.158828
   3 C     6.0000    0    12.011   -4.309090   -2.461575   -0.633223
   4 C     6.0000    0    12.011   -6.420360   -3.307621   -2.210871
   5 C     6.0000    0    12.011   -8.823854   -2.397481   -1.734415
   6 C     6.0000    0    12.011  -10.870605   -3.126279   -3.224999
   7 C     6.0000    0    12.011  -10.484806   -4.798046   -5.226223
   8 C     6.0000    0    12.011   -8.067582   -5.735043   -5.716826
   9 C     6.0000    0    12.011   -6.031360   -4.993346   -4.209829
  10 O     8.0000    0    15.999   -9.338507   -0.783316    0.299135
  11 O     8.0000    0    15.999   -2.231862   -3.470824   -0.860992
  12 C     6.0000    0    12.011   -2.857943    1.080281    1.939741
  13 C     6.0000    0    12.011   -3.248426    3.298907    3.607025
  14 C     6.0000    0    12.011   -3.163263    3.040459    6.241756
  15 C     6.0000    0    12.011   -3.476693    5.150344    7.793832
  16 C     6.0000    0    12.011   -3.864621    7.528132    6.725652
  17 C     6.0000    0    12.011   -3.937863    7.803768    4.105829
  18 C     6.0000    0    12.011   -3.626940    5.697641    2.548250
  19 N     7.0000    0    14.007   -0.355388    0.734863    1.160255
  20 C     6.0000    0    12.011    1.896529    1.642382    2.448338
  21 C     6.0000    0    12.011    4.200867    0.942941    0.921528
  22 C     6.0000    0    12.011    4.821218    2.288647   -1.268060
  23 C     6.0000    0    12.011    6.955956    1.645365   -2.690172
  24 C     6.0000    0    12.011    8.503670   -0.374681   -1.967634
  25 O     8.0000    0    15.999   10.665758   -1.060778   -3.214810
  26 C     6.0000    0    12.011   11.503152    0.516502   -5.220431
  27 C     6.0000    0    12.011    7.833513   -1.784312    0.181453
  28 O     8.0000    0    15.999    9.161716   -3.802366    1.129106
  29 C     6.0000    0    12.011    9.856200   -5.635616   -0.717132
  30 C     6.0000    0    12.011    5.724793   -1.099727    1.626651
  31 H     1.0000    0     1.008  -12.754407   -2.411740   -2.824837
  32 H     1.0000    0     1.008  -12.069467   -5.380639   -6.398760
  33 H     1.0000    0     1.008   -7.767978   -7.043621   -7.273746
  34 H     1.0000    0     1.008   -4.149868   -5.724608   -4.604995
  35 H     1.0000    0     1.008   -2.870919    1.193574    7.091844
  36 H     1.0000    0     1.008   -3.431198    4.935536    9.835593
  37 H     1.0000    0     1.008   -4.117111    9.167019    7.937655
  38 H     1.0000    0     1.008   -4.238007    9.658181    3.276623
  39 H     1.0000    0     1.008   -3.663088    5.933200    0.508018
  40 H     1.0000    0     1.008   -0.080820   -0.985171    0.296305
  41 H     1.0000    0     1.008    2.018211    0.808736    4.341388
  42 H     1.0000    0     1.008    1.857991    3.701018    2.678977
  43 H     1.0000    0     1.008    3.634486    3.855028   -1.875792
  44 H     1.0000    0     1.008    7.354673    2.770834   -4.356477
  45 H     1.0000    0     1.008   10.166970    0.481620   -6.799594
  46 H     1.0000    0     1.008   13.302223   -0.237950   -5.906390
  47 H     1.0000    0     1.008   11.842772    2.449938   -4.565593
  48 H     1.0000    0     1.008    9.914722   -7.477025    0.223231
  49 H     1.0000    0     1.008    8.490175   -5.770474   -2.268200
  50 H     1.0000    0     1.008   11.755728   -5.247204   -1.433702
  51 H     1.0000    0     1.008    5.270170   -2.200018    3.302637

--------------------------------
INTERNAL COORDINATES (ANGSTROEM)
--------------------------------
 O      0   0   0     0.000000000000     0.00000000     0.00000000
 C      1   0   0     1.223591554925     0.00000000     0.00000000
 C      2   1   0     1.486281962155   125.22008761     0.00000000
 C      3   2   1     1.490559352121   119.02475270   156.99176015
 C      4   3   2     1.464801082160   116.51425419    21.97502894
 C      5   4   3     1.383183517285   119.40806625   351.06890381
 C      6   5   4     1.394276739059   120.98843820   178.85364731
 C      7   6   5     1.394915915477   119.42116711     0.00000000
 C      8   7   6     1.396228452961   120.03111080     0.25761289
 C      9   8   7     1.396802869551   120.05181256   359.78931763
 O      2   1   3     1.392181557593   119.47521346   179.40352615
 O      4   3   2     1.228026370278   123.88598369   201.12326761
 C      3   2   1     1.360863631672   123.29931213   335.09853309
 C     13   3   2     1.483076661507   120.99369325   358.40933885
 C     14  13   3     1.401656346087   120.66612206    90.75975929
 C     15  14  13     1.395944323611   120.22447910   178.55728637
 C     16  15  14     1.394597381889   120.04293305   359.70383992
 C     17  16  15     1.394541334515   120.09259101   359.93871201
 C     18  17  16     1.395914643013   120.01385919     0.10710622
 N     13   3   2     1.399039947182   124.64150458   182.54188004
 C     20  13   3     1.454408264814   126.45940611   200.07775057
 C     21  20  13     1.508882653455   109.28126567   182.06935663
 C     22  21  20     1.399076460235   120.54569068    76.07451272
 C     23  22  21     1.399403132921   120.72766458   180.03084354
 C     24  23  22     1.399877968981   120.74088567     0.64603921
 O     25  24  23     1.369822858137   124.01873804   182.27104315
 C     26  25  24     1.421070744185   117.68484206     5.96887778
 C     25  24  23     1.405535522631   118.59672661     1.57651280
 O     28  25  24     1.373284855165   125.38247887   180.32524618
 C     29  28  25     1.425021085121   114.26927094   311.91341700
 C     22  21  20     1.399275365187   120.82748958   257.68429166
 H      7   6   5     1.086993169458   120.39620636   179.50065262
 H      8   7   6     1.087766047477   119.99810761   179.90839328
 H      9   8   7     1.087860052812   120.02593475   179.79887129
 H     10   9   8     1.088473865162   119.73898526   180.21409500
 H     15  14  13     1.086953339367   120.26366472   357.96472875
 H     16  15  14     1.086683170374   119.91363870   179.27431528
 H     17  16  15     1.086896504261   119.92371010   179.71049441
 H     18  17  16     1.086620490164   119.99773614   180.07490556
 H     19  18  17     1.086985024890   119.52747523   180.76500757
 H     20  13   3     1.028880623433   112.35002233   345.25151525
 H     21  20  13     1.096484043650   110.08676667    61.07807306
 H     21  20  13     1.096388056329   111.40855604   302.03262717
 H     23  22  21     1.088513908162   119.79543202     0.07720166
 H     24  23  22     1.084778011277   117.42474933   180.73669529
 H     27  26  25     1.094816075158   111.02447401   293.82596728
 H     27  26  25     1.094308653757   107.74255646   176.22778033
 H     27  26  25     1.095068234888   111.32163314    58.42344989
 H     30  29  28     1.094577853937   107.55718665   210.51477125
 H     30  29  28     1.096051728720   112.80852779   328.92023498
 H     30  29  28     1.093816123627   110.28859065    93.69445990
 H     31  22  21     1.087874250267   120.22531897   359.43974780

---------------------------
INTERNAL COORDINATES (A.U.)
---------------------------
 O      0   0   0     0.000000000000     0.00000000     0.00000000
 C      1   0   0     2.312252938587     0.00000000     0.00000000
 C      2   1   0     2.808665866259   125.22008761     0.00000000
 C      3   2   1     2.816748961865   119.02475270   156.99176015
 C      4   3   2     2.768072885953   116.51425419    21.97502894
 C      5   4   3     2.613838040622   119.40806625   351.06890381
 C      6   5   4     2.634801191719   120.98843820   178.85364731
 C      7   6   5     2.636009060099   119.42116711     0.00000000
 C      8   7   6     2.638489396484   120.03111080     0.25761289
 C      9   8   7     2.639574886526   120.05181256   359.78931763
 O      2   1   3     2.630841872547   119.47521346   179.40352615
 O      4   3   2     2.320633525058   123.88598369   201.12326761
 C      3   2   1     2.571659569473   123.29931213   335.09853309
 C     13   3   2     2.802608725859   120.99369325   358.40933885
 C     14  13   3     2.648746627977   120.66612206    90.75975929
 C     15  14  13     2.637952469827   120.22447910   178.55728637
 C     16  15  14     2.635407118853   120.04293305   359.70383992
 C     17  16  15     2.635301204666   120.09259101   359.93871201
 C     18  17  16     2.637896381624   120.01385919     0.10710622
 N     13   3   2     2.643802350589   124.64150458   182.54188004
 C     20  13   3     2.748433307409   126.45940611   200.07775057
 C     21  20  13     2.851374983254   109.28126567   182.06935663
 C     22  21  20     2.643871350260   120.54569068    76.07451272
 C     23  22  21     2.644488672173   120.72766458   180.03084354
 C     24  23  22     2.645385982284   120.74088567     0.64603921
 O     25  24  23     2.588590053865   124.01873804   182.27104315
 C     26  25  24     2.685434523437   117.68484206     5.96887778
 C     25  24  23     2.656077209271   118.59672661     1.57651280
 O     28  25  24     2.595132280123   125.38247887   180.32524618
 C     29  28  25     2.692899585943   114.26927094   311.91341700
 C     22  21  20     2.644247226147   120.82748958   257.68429166
 H      7   6   5     2.054119399718   120.39620636   179.50065262
 H      8   7   6     2.055579927509   119.99810761   179.90839328
 H      9   8   7     2.055757571847   120.02593475   179.79887129
 H     10   9   8     2.056917509087   119.73898526   180.21409500
 H     15  14  13     2.054044131755   120.26366472   357.96472875
 H     16  15  14     2.053533586348   119.91363870   179.27431528
 H     17  16  15     2.053936728969   119.92371010   179.71049441
 H     18  17  16     2.053415137917   119.99773614   180.07490556
 H     19  18  17     2.054104008715   119.52747523   180.76500757
 H     20  13   3     1.944302602787   112.35002233   345.25151525
 H     21  20  13     2.072054552714   110.08676667    61.07807306
 H     21  20  13     2.071873162964   111.40855604   302.03262717
 H     23  22  21     2.056993179391   119.79543202     0.07720166
 H     24  23  22     2.049933357414   117.42474933   180.73669529
 H     27  26  25     2.068902549062   111.02447401   293.82596728
 H     27  26  25     2.067943661581   107.74255646   176.22778033
 H     27  26  25     2.069379061895   111.32163314    58.42344989
 H     30  29  28     2.068452376196   107.55718665   210.51477125
 H     30  29  28     2.071237595892   112.80852779   328.92023498
 H     30  29  28     2.067012914523   110.28859065    93.69445990
 H     31  22  21     2.055784401150   120.22531897   359.43974780

---------------------
BASIS SET INFORMATION
---------------------
There are 4 groups of distinct atoms

 Group   1 Type O   : 7s4p1d contracted to 3s2p1d pattern {511/31/1}
 Group   2 Type C   : 7s4p1d contracted to 3s2p1d pattern {511/31/1}
 Group   3 Type N   : 7s4p1d contracted to 3s2p1d pattern {511/31/1}
 Group   4 Type H   : 4s1p contracted to 2s1p pattern {31/1}

Atom   0O    basis set group =>   1
Atom   1C    basis set group =>   2
Atom   2C    basis set group =>   2
Atom   3C    basis set group =>   2
Atom   4C    basis set group =>   2
Atom   5C    basis set group =>   2
Atom   6C    basis set group =>   2
Atom   7C    basis set group =>   2
Atom   8C    basis set group =>   2
Atom   9C    basis set group =>   2
Atom  10O    basis set group =>   1
Atom  11O    basis set group =>   1
Atom  12C    basis set group =>   2
Atom  13C    basis set group =>   2
Atom  14C    basis set group =>   2
Atom  15C    basis set group =>   2
Atom  16C    basis set group =>   2
Atom  17C    basis set group =>   2
Atom  18C    basis set group =>   2
Atom  19N    basis set group =>   3
Atom  20C    basis set group =>   2
Atom  21C    basis set group =>   2
Atom  22C    basis set group =>   2
Atom  23C    basis set group =>   2
Atom  24C    basis set group =>   2
Atom  25O    basis set group =>   1
Atom  26C    basis set group =>   2
Atom  27C    basis set group =>   2
Atom  28O    basis set group =>   1
Atom  29C    basis set group =>   2
Atom  30C    basis set group =>   2
Atom  31H    basis set group =>   4
Atom  32H    basis set group =>   4
Atom  33H    basis set group =>   4
Atom  34H    basis set group =>   4
Atom  35H    basis set group =>   4
Atom  36H    basis set group =>   4
Atom  37H    basis set group =>   4
Atom  38H    basis set group =>   4
Atom  39H    basis set group =>   4
Atom  40H    basis set group =>   4
Atom  41H    basis set group =>   4
Atom  42H    basis set group =>   4
Atom  43H    basis set group =>   4
Atom  44H    basis set group =>   4
Atom  45H    basis set group =>   4
Atom  46H    basis set group =>   4
Atom  47H    basis set group =>   4
Atom  48H    basis set group =>   4
Atom  49H    basis set group =>   4
Atom  50H    basis set group =>   4
Atom  51H    basis set group =>   4
---------------------------------
AUXILIARY/J BASIS SET INFORMATION
---------------------------------
There are 4 groups of distinct atoms

 Group   1 Type O   : 12s5p4d2f1g contracted to 6s4p3d1f1g pattern {711111/2111/211/2/1}
 Group   2 Type C   : 12s5p4d2f1g contracted to 6s4p3d1f1g pattern {711111/2111/211/2/1}
 Group   3 Type N   : 12s5p4d2f1g contracted to 6s4p3d1f1g pattern {711111/2111/211/2/1}
 Group   4 Type H   : 5s2p1d contracted to 3s1p1d pattern {311/2/1}

Atom   0O    basis set group =>   1
Atom   1C    basis set group =>   2
Atom   2C    basis set group =>   2
Atom   3C    basis set group =>   2
Atom   4C    basis set group =>   2
Atom   5C    basis set group =>   2
Atom   6C    basis set group =>   2
Atom   7C    basis set group =>   2
Atom   8C    basis set group =>   2
Atom   9C    basis set group =>   2
Atom  10O    basis set group =>   1
Atom  11O    basis set group =>   1
Atom  12C    basis set group =>   2
Atom  13C    basis set group =>   2
Atom  14C    basis set group =>   2
Atom  15C    basis set group =>   2
Atom  16C    basis set group =>   2
Atom  17C    basis set group =>   2
Atom  18C    basis set group =>   2
Atom  19N    basis set group =>   3
Atom  20C    basis set group =>   2
Atom  21C    basis set group =>   2
Atom  22C    basis set group =>   2
Atom  23C    basis set group =>   2
Atom  24C    basis set group =>   2
Atom  25O    basis set group =>   1
Atom  26C    basis set group =>   2
Atom  27C    basis set group =>   2
Atom  28O    basis set group =>   1
Atom  29C    basis set group =>   2
Atom  30C    basis set group =>   2
Atom  31H    basis set group =>   4
Atom  32H    basis set group =>   4
Atom  33H    basis set group =>   4
Atom  34H    basis set group =>   4
Atom  35H    basis set group =>   4
Atom  36H    basis set group =>   4
Atom  37H    basis set group =>   4
Atom  38H    basis set group =>   4
Atom  39H    basis set group =>   4
Atom  40H    basis set group =>   4
Atom  41H    basis set group =>   4
Atom  42H    basis set group =>   4
Atom  43H    basis set group =>   4
Atom  44H    basis set group =>   4
Atom  45H    basis set group =>   4
Atom  46H    basis set group =>   4
Atom  47H    basis set group =>   4
Atom  48H    basis set group =>   4
Atom  49H    basis set group =>   4
Atom  50H    basis set group =>   4
Atom  51H    basis set group =>   4


           ************************************************************
           *        Program running with 8 parallel MPI-processes     *
           *              working on a common directory               *
           ************************************************************
------------------------------------------------------------------------------
                             ORCA STARTUP CALCULATIONS
                           -- RI-GTO INTEGRALS CHOSEN --
------------------------------------------------------------------------------
------------------------------------------------------------------------------
                   ___                                                        
                  /   \      - P O W E R E D   B Y -                         
                 /     \                                                     
                 |  |  |   _    _      __       _____    __    __             
                 |  |  |  | |  | |    /  \     |  _  \  |  |  /  |          
                  \  \/   | |  | |   /    \    | | | |  |  | /  /          
                 / \  \   | |__| |  /  /\  \   | |_| |  |  |/  /          
                |  |  |   |  __  | /  /__\  \  |    /   |      \           
                |  |  |   | |  | | |   __   |  |    \   |  |\   \          
                \     /   | |  | | |  |  |  |  | |\  \  |  | \   \       
                 \___/    |_|  |_| |__|  |__|  |_| \__\ |__|  \__/        
                                                                              
                      - O R C A' S   B I G   F R I E N D -                    
                                      &                                       
                       - I N T E G R A L  F E E D E R -                       
                                                                              
 v1 FN, 2020, v2 2021, v3 2022-2024                                           
------------------------------------------------------------------------------


----------------------
SHARK INTEGRAL PACKAGE
----------------------

Number of atoms                             ...     52
Number of basis functions                   ...    539
Number of shells                            ...    249
Maximum angular momentum                    ...      2
Integral batch strategy                     ... SHARK/LIBINT Hybrid
RI-J (if used) integral strategy            ... SPLIT-RIJ (Revised 2003 algorithm where possible)
Printlevel                                  ...      1
Contraction scheme used                     ... SEGMENTED contraction
Prescreening option                         ... SCHWARTZ
   Thresh                                   ... 2.500e-11
   Tcut                                     ... 2.500e-12
   Tpresel                                  ... 2.500e-12 
Coulomb Range Separation                    ... NOT USED
Exchange Range Separation                   ... NOT USED
Multipole approximations                    ... NOT USED
Finite Nucleus Model                        ... NOT USED
CABS basis                                  ... NOT available
Auxiliary Coulomb fitting basis             ... AVAILABLE
   # of basis functions in Aux-J            ...   1750
   # of shells in Aux-J                     ...    570
   Maximum angular momentum in Aux-J        ...      4
Auxiliary J/K fitting basis                 ... NOT available
Auxiliary Correlation fitting basis         ... NOT available
Auxiliary 'external' fitting basis          ... NOT available

Checking pre-screening integrals            ... done (  0.0 sec) Dimension = 249
   => SHARK Basis and OBASIS are compatible. Storing Pre-screening
Shell pair information
Shell pair cut-off parameter TPreSel        ...   2.5e-12
Total number of shell pairs                 ...     31125
Shell pairs after pre-screening             ...     18039
Total number of primitive shell pairs       ...    114469
Primitive shell pairs kept                  ...     40794
          la=0 lb=0:   5455 shell pairs
          la=1 lb=0:   6732 shell pairs
          la=1 lb=1:   2125 shell pairs
          la=2 lb=0:   2159 shell pairs
          la=2 lb=1:   1352 shell pairs
          la=2 lb=2:    216 shell pairs

Checking whether 4 symmetric matrices of dimension 539 fit in memory
:Max Core in MB      =   3000.00
 MB in use           =     20.85
 MB left             =   2979.15
 MB needed           =      4.44
 Data fit in memory  = YES
Calculating RI/J V-Matrix + Cholesky decomp.... done (  0.1 sec)
Calculating Nuclear repulsion               ... done (  0.0 sec) ENN=   2849.068656867210 Eh

Diagonalization of the overlap matrix:
Smallest eigenvalue                        ... 2.030e-04
Time for diagonalization                   ...    0.018 sec
Threshold for overlap eigenvalues          ... 1.000e-07
Number of eigenvalues below threshold      ... 0
Time for construction of square roots      ...    0.013 sec
Total time needed                          ...    0.034 sec

-------------------
DFT GRID GENERATION
-------------------

General Integration Accuracy     IntAcc      ... 4.388
Radial Grid Type                 RadialGrid  ... OptM3 with GC (2021)
Angular Grid (max. ang.)         AngularGrid ... 4 (Lebedev-302)
Angular grid pruning method      GridPruning ... 4 (adaptive)
Weight generation scheme         WeightScheme... mBecke (2022)
Basis function cutoff            BFCut       ... 1.0000e-11
Integration weight cutoff        WCut        ... 1.0000e-14
Partially contracted basis set               ... off
Rotationally invariant grid construction     ... off
Angular grids for H and He will be reduced by one unit

Total number of grid points                  ...   252383
Total number of batches                      ...     3966
Average number of points per batch           ...       63
Average number of grid points per atom       ...     4854

--------------------
COSX GRID GENERATION
--------------------

GRIDX 1
-------
General Integration Accuracy     IntAcc      ... 3.816
Radial Grid Type                 RadialGrid  ... OptM3 with GC (2021)
Angular Grid (max. ang.)         AngularGrid ... 1 (Lebedev-50)
Angular grid pruning method      GridPruning ... 4 (adaptive)
Weight generation scheme         WeightScheme... mBecke (2022)
Basis function cutoff            BFCut       ... 1.0000e-11
Integration weight cutoff        WCut        ... 1.0000e-14
Partially contracted basis set               ... on
Rotationally invariant grid construction     ... off
Angular grids for H and He will be reduced by one unit

Total number of grid points                  ...    32036
Total number of batches                      ...      280
Average number of points per batch           ...      114
Average number of grid points per atom       ...      616
UseSFitting                                  ... on

GRIDX 2
-------
General Integration Accuracy     IntAcc      ... 4.020
Radial Grid Type                 RadialGrid  ... OptM3 with GC (2021)
Angular Grid (max. ang.)         AngularGrid ... 2 (Lebedev-110)
Angular grid pruning method      GridPruning ... 4 (adaptive)
Weight generation scheme         WeightScheme... mBecke (2022)
Basis function cutoff            BFCut       ... 1.0000e-11
Integration weight cutoff        WCut        ... 1.0000e-14
Partially contracted basis set               ... on
Rotationally invariant grid construction     ... off
Angular grids for H and He will be reduced by one unit

Total number of grid points                  ...    69827
Total number of batches                      ...      574
Average number of points per batch           ...      121
Average number of grid points per atom       ...     1343
UseSFitting                                  ... on

GRIDX 3
-------
General Integration Accuracy     IntAcc      ... 4.338
Radial Grid Type                 RadialGrid  ... OptM3 with GC (2021)
Angular Grid (max. ang.)         AngularGrid ... 3 (Lebedev-194)
Angular grid pruning method      GridPruning ... 4 (adaptive)
Weight generation scheme         WeightScheme... mBecke (2022)
Basis function cutoff            BFCut       ... 1.0000e-11
Integration weight cutoff        WCut        ... 1.0000e-14
Partially contracted basis set               ... on
Rotationally invariant grid construction     ... off
Angular grids for H and He will be reduced by one unit

Total number of grid points                  ...   152763
Total number of batches                      ...     1220
Average number of points per batch           ...      125
Average number of grid points per atom       ...     2938
UseSFitting                                  ... on
Grids setup in   1.7 sec
Initializing property integral containers    ... done (  0.0 sec)

SHARK setup successfully completed in   2.0 seconds

Maximum memory used throughout the entire STARTUP-calculation: 67.3 MB


           ************************************************************
           *        Program running with 8 parallel MPI-processes     *
           *              working on a common directory               *
           ************************************************************
-------------------------------------------------------------------------------
                                 ORCA GUESS
                   Start orbitals & Density for SCF / CASSCF
-------------------------------------------------------------------------------

------------
SCF SETTINGS
------------
Hamiltonian:
 Density Functional     Method          .... DFT(GTOs)
 Exchange Functional    Exchange        .... B88
   X-Alpha parameter    XAlpha          ....  0.666667
   Becke's b parameter  XBeta           ....  0.004200
 Correlation Functional Correlation     .... LYP
 LDA part of GGA corr.  LDAOpt          .... VWN-5
 Gradients option       PostSCFGGA      .... off
 Hybrid DFT is turned on
   Fraction HF Exchange ScalHFX         ....  0.200000
   Scaling of DF-GGA-X  ScalDFX         ....  0.720000
   Scaling of DF-GGA-C  ScalDFC         ....  0.810000
   Scaling of DF-LDA-C  ScalLDAC        ....  1.000000
   Perturbative correction              ....  0.000000
   NL short-range parameter             ....  4.800000
 RI-approximation to the Coulomb term is turned on
   Number of AuxJ basis functions       .... 1750
   RIJ-COSX (HFX calculated with COS-X)).... on


General Settings:
 Integral files         IntName         .... input\CMR_GOLD_092_optfreq
 Hartree-Fock type      HFTyp           .... RHF
 Total Charge           Charge          ....    0
 Multiplicity           Mult            ....    1
 Number of Electrons    NEL             ....  218
 Basis Dimension        Dim             ....  539
 Nuclear Repulsion      ENuc            ....   2849.0686568672 Eh

Convergence Acceleration:
 AO-DIIS                CNVDIIS         .... on
   Start iteration      DIISMaxIt       ....    12
   Startup error        DIISStart       ....  0.200000
   # of expansion vecs  DIISMaxEq       ....     5
   Bias factor          DIISBfac        ....   1.050
   Max. coefficient     DIISMaxC        ....  10.000
 MO-DIIS                CNVKDIIS        .... off
 Trust-Rad. Augm. Hess. CNVTRAH         .... auto
   Auto Start mean grad. ratio tolernc. ....  1.125000
   Auto Start start iteration           ....    50
   Auto Start num. interpolation iter.  ....    10
   Max. Number of Micro iterations      ....    24
   Max. Number of Macro iterations      .... Maxiter - #DIIS iter
   Number of Davidson start vectors     ....     2
   Converg. threshold    (grad. norm)   ....   1.000e-05
   Grad. Scal. Fac. for Micro threshold ....   0.100
   Minimum threshold for Micro iter.    ....   1.000e-02
   NR start threshold (gradient norm)   ....   1.000e-04
   Initial trust radius                 ....   0.400
   Minimum AH scaling param. (alpha)    ....   1.000
   Maximum AH scaling param. (alpha)    .... 1000.000
   Quad. conv. algorithm                .... NR
   White noise on init. David. guess    .... on
   Maximum white noise                  ....   0.010
   Pseudo random numbers                .... off
   Inactive MOs                         .... canonical
   Orbital update algorithm             .... Taylor
   Preconditioner                       .... Diag
   Full preconditioner red. dimension   ....   250
 SOSCF                 CNVSOSCF           .... on
   Start iteration     SOSCFMaxIt         ....   150
   Startup grad/error  SOSCFStart         ....  0.003300
   Hessian update      SOSCFHessUp        .... L-BFGS
   Autom. constraints  SOSCFAutoConstrain .... off
 Level Shifting         CNVShift        .... on
   Level shift para.    LevelShift      ....    0.2500
   Turn off err/grad.   ShiftErr        ....    0.0010
 Zerner damping         CNVZerner       .... off
 Static damping         CNVDamp         .... on
   Fraction old density DampFac         ....    0.7000
   Max. Damping (<1)    DampMax         ....    0.9800
   Min. Damping (>=0)   DampMin         ....    0.0000
   Turn off err/grad.   DampErr         ....    0.1000

SCF Procedure:
 Maximum # iterations   MaxIter         ....   500
 SCF integral mode      SCFMode         .... Direct
   Integral package                     .... SHARK and LIBINT hybrid scheme
 Reset frequency        DirectResetFreq ....    20
 Integral Threshold     Thresh          ....  2.500e-11 Eh
 Primitive CutOff       TCut            ....  2.500e-12 Eh

Convergence Tolerance:
 Convergence Check Mode ConvCheckMode   .... Total+1el-Energy
 Convergence forced     ConvForced      .... 0
 Energy Change          TolE            ....  1.000e-08 Eh
 1-El. energy change                    ....  1.000e-05 Eh
 Orbital Gradient       TolG            ....  1.000e-05
 Orbital Rotation angle TolX            ....  1.000e-05
 DIIS Error             TolErr          ....  5.000e-07

------------------------------
INITIAL GUESS: MODEL POTENTIAL
------------------------------
Loading Hartree-Fock densities                     ... done
Calculating cut-offs                               ... done
Initializing the effective Hamiltonian             ... done
Setting up the integral package (SHARK)            ... done
Starting the Coulomb interaction                   ... done (   0.1 sec)
Making the grid                                    ... done (   0.3 sec)
Mapping shells                                     ... done
Starting the XC term evaluation                    ... done (   0.1 sec)
  promolecular density results
     # of electrons  =    217.979931193
     EX              =   -182.370097321
     EC              =     -7.475798153
     EX+EC           =   -189.845895474
Transforming the Hamiltonian                       ... done (   0.0 sec)
Diagonalizing the Hamiltonian                      ... done (   0.0 sec)
Back transforming the eigenvectors                 ... done (   0.0 sec)
Now organizing SCF variables                       ... done
                      ------------------
                      INITIAL GUESS DONE (   0.7 sec)
                      ------------------
             **** ENERGY FILE WAS UPDATED (input\CMR_GOLD_092_optfreq.en.tmp) ****
Finished Guess after   0.8 sec
Maximum memory used throughout the entire GUESS-calculation: 29.0 MB


           ************************************************************
           *        Program running with 8 parallel MPI-processes     *
           *              working on a common directory               *
           ************************************************************

-------------------------------------------------------------------------------------------
                                      ORCA LEAN-SCF
                              memory conserving SCF solver
-------------------------------------------------------------------------------------------

--------------------
CPCM SOLVATION MODEL
--------------------
CPCM parameters:
  Epsilon                                         ...      80.1510
  Refrac                                          ...       1.3328
  Rsolv                                           ...       1.3000
  Surface type                                    ... GAUSSIAN VDW
  Discretization scheme                           ... Constant charge density
    Threshold for H atoms                         ...       5.0000 (charges/Ang^2)
    Threshold for non-H atoms                     ...       5.0000 (charges/Ang^2)
  Epsilon function type                           ...         CPCM
Solvent:                                          ... WATER
Radii:
  Scheme                                          ... Element-dependent radii
  Radius for O  used is    3.4469 Bohr (=   1.8240 Ang.)
  Radius for C  used is    3.8550 Bohr (=   2.0400 Ang.)
  Radius for N  used is    3.5149 Bohr (=   1.8600 Ang.)
  Radius for H  used is    2.4944 Bohr (=   1.3200 Ang.)
Calculating surface                               ...        done! (  0.0s)
Cavity surface points                             ...         4560
Cavity Volume                                     ...    3251.6936
Cavity Surface-area                               ...    1632.5081
Calculating surface distance matrix               ...        done! (  0.1s)
Performing Cholesky decomposition & store         ...        done! (  0.5s)
Overall time for CPCM initialization              ...                 0.6s

----------------------------------------D-I-I-S--------------------------------------------
Iteration    Energy (Eh)           Delta-E    RMSDP     MaxDP     DIISErr   Damp  Time(sec)
-------------------------------------------------------------------------------------------
               ***  Starting incremental Fock matrix formation  ***
    1    -1393.7283916293317816     0.00e+00  6.13e-03  9.71e-02  2.65e-01  0.700   4.0
    2    -1394.0192291619741809    -2.91e-01  4.07e-03  5.74e-02  9.64e-02  0.700   3.4
                               ***Turning on AO-DIIS***
    3    -1394.1340804298406510    -1.15e-01  1.79e-03  2.24e-02  3.36e-02  0.700   3.1
    4    -1394.2057701855674168    -7.17e-02  3.28e-03  3.12e-02  1.71e-02  0.000   3.1
    5    -1394.3616304719053005    -1.56e-01  5.21e-04  6.52e-03  6.19e-03  0.000   3.2
                              *** Initializing SOSCF ***
---------------------------------------S-O-S-C-F--------------------------------------
Iteration    Energy (Eh)           Delta-E    RMSDP     MaxDP     MaxGrad    Time(sec)
--------------------------------------------------------------------------------------
    6    -1394.3626084357438231    -9.78e-04  1.73e-04  2.14e-03  1.59e-03     2.9
               *** Restarting incremental Fock matrix formation ***
    7    -1394.3626521144960861    -4.37e-05  1.42e-04  2.46e-03  2.95e-04     5.3
    8    -1394.3626359433901598     1.62e-05  7.34e-05  1.87e-03  6.36e-04     4.3
    9    -1394.3626655801717789    -2.96e-05  2.75e-05  4.24e-04  8.10e-05     3.9
   10    -1394.3626651039267017     4.76e-07  1.50e-05  2.20e-04  1.05e-04     3.6
   11    -1394.3626661595262703    -1.06e-06  7.26e-06  1.28e-04  1.86e-05     3.3
   12    -1394.3626661535254243     6.00e-09  4.33e-06  8.51e-05  2.02e-05     3.1
                 **** Energy Check signals convergence ****

               *****************************************************
               *                     SUCCESS                       *
               *           SCF CONVERGED AFTER  12 CYCLES          *
               *****************************************************

Recomputing exchange energy using gridx3       ... done (    8.057 sec)
Old exchange energy                            :    -36.915710819 Eh
New exchange energy                            :    -36.915827822 Eh
Exchange energy change after final integration :     -0.000117002 Eh
Total energy after final integration           :  -1394.362783210 Eh
             **** ENERGY FILE WAS UPDATED (input\CMR_GOLD_092_optfreq.en.tmp) ****

----------------
TOTAL SCF ENERGY
----------------

Total Energy       :      -1394.36278320993142 Eh          -37942.54029 eV

Components:
Nuclear Repulsion  :       2849.06865686720994 Eh           77527.09955 eV
Electronic Energy  :      -4243.40424555311074 Eh         -115468.89985 eV
One Electron Energy:      -7563.12780721951731 Eh         -205803.17047 eV
Two Electron Energy:       3319.72356166640611 Eh           90334.27062 eV
CPCM Dielectric    :         -0.02707752172632 Eh              -0.73682 eV

Virial components:
Potential Energy   :      -2775.44215054968390 Eh          -75523.62046 eV
Kinetic Energy     :       1381.07936733975248 Eh           37581.08017 eV
Virial Ratio       :          2.00961814084281

DFT components:
N(Alpha)           :      109.000270180662 electrons
N(Beta)            :      109.000270180662 electrons
N(Total)           :      218.000540361323 electrons
E(X)               :     -146.742431416738 Eh       
E(C)               :       -8.796620463562 Eh       
E(XC)              :     -155.539051880300 Eh       

CPCM Solvation Model Properties:
Surface-charge          :         -0.03088217558090
Corrected charge        :          0.00000000000000
Outlying charge corr.   :          0.00004316716648 Eh               0.00117 eV
Free-energy (cav+disp)  :  This term is not implemented in the current solvation scheme

---------------
SCF CONVERGENCE
---------------

  Last Energy change         ...   -6.0008e-09  Tolerance :   1.0000e-08
  Last MAX-Density change    ...    8.5126e-05  Tolerance :   1.0000e-07
  Last RMS-Density change    ...    4.3337e-06  Tolerance :   5.0000e-09
  Last DIIS Error            ...    1.5949e-03  Tolerance :   5.0000e-07
  Last Orbital Gradient      ...    2.0241e-05  Tolerance :   1.0000e-05
  Last Orbital Rotation      ...    5.3840e-05  Tolerance :   1.0000e-05


----------------
ORBITAL ENERGIES
----------------

  NO   OCC          E(Eh)            E(eV) 
   0   2.0000     -19.197531      -522.3914 
   1   2.0000     -19.164335      -521.4881 
   2   2.0000     -19.152566      -521.1678 
   3   2.0000     -19.127970      -520.4985 
   4   2.0000     -19.125002      -520.4178 
   5   2.0000     -14.361604      -390.7991 
   6   2.0000     -10.332944      -281.1737 
   7   2.0000     -10.280487      -279.7463 
   8   2.0000     -10.268827      -279.4290 
   9   2.0000     -10.268194      -279.4118 
  10   2.0000     -10.249650      -278.9072 
  11   2.0000     -10.241906      -278.6964 
  12   2.0000     -10.232297      -278.4350 
  13   2.0000     -10.223825      -278.2044 
  14   2.0000     -10.223702      -278.2011 
  15   2.0000     -10.204965      -277.6912 
  16   2.0000     -10.203713      -277.6571 
  17   2.0000     -10.203105      -277.6406 
  18   2.0000     -10.201230      -277.5896 
  19   2.0000     -10.200460      -277.5686 
  20   2.0000     -10.200141      -277.5599 
  21   2.0000     -10.195051      -277.4215 
  22   2.0000     -10.194172      -277.3975 
  23   2.0000     -10.193706      -277.3849 
  24   2.0000     -10.191647      -277.3288 
  25   2.0000     -10.190675      -277.3024 
  26   2.0000     -10.190356      -277.2937 
  27   2.0000     -10.189603      -277.2732 
  28   2.0000     -10.189044      -277.2580 
  29   2.0000     -10.186758      -277.1958 
  30   2.0000     -10.186328      -277.1841 
  31   2.0000      -1.097630       -29.8680 
  32   2.0000      -1.059493       -28.8303 
  33   2.0000      -1.037415       -28.2295 
  34   2.0000      -1.036037       -28.1920 
  35   2.0000      -1.017417       -27.6853 
  36   2.0000      -0.942253       -25.6400 
  37   2.0000      -0.865288       -23.5457 
  38   2.0000      -0.857192       -23.3254 
  39   2.0000      -0.846970       -23.0472 
  40   2.0000      -0.810893       -22.0655 
  41   2.0000      -0.775316       -21.0974 
  42   2.0000      -0.758768       -20.6471 
  43   2.0000      -0.756386       -20.5823 
  44   2.0000      -0.746324       -20.3085 
  45   2.0000      -0.745734       -20.2925 
  46   2.0000      -0.741545       -20.1785 
  47   2.0000      -0.713769       -19.4226 
  48   2.0000      -0.685642       -18.6573 
  49   2.0000      -0.669240       -18.2109 
  50   2.0000      -0.652916       -17.7667 
  51   2.0000      -0.640898       -17.4397 
  52   2.0000      -0.627510       -17.0754 
  53   2.0000      -0.607052       -16.5187 
  54   2.0000      -0.604323       -16.4445 
  55   2.0000      -0.600927       -16.3521 
  56   2.0000      -0.583147       -15.8682 
  57   2.0000      -0.573421       -15.6036 
  58   2.0000      -0.560387       -15.2489 
  59   2.0000      -0.549996       -14.9661 
  60   2.0000      -0.531720       -14.4688 
  61   2.0000      -0.517047       -14.0696 
  62   2.0000      -0.507795       -13.8178 
  63   2.0000      -0.503337       -13.6965 
  64   2.0000      -0.500119       -13.6089 
  65   2.0000      -0.489580       -13.3221 
  66   2.0000      -0.477444       -12.9919 
  67   2.0000      -0.476702       -12.9717 
  68   2.0000      -0.472021       -12.8443 
  69   2.0000      -0.464269       -12.6334 
  70   2.0000      -0.459406       -12.5011 
  71   2.0000      -0.454356       -12.3637 
  72   2.0000      -0.450761       -12.2658 
  73   2.0000      -0.449406       -12.2290 
  74   2.0000      -0.448354       -12.2003 
  75   2.0000      -0.441673       -12.0185 
  76   2.0000      -0.439276       -11.9533 
  77   2.0000      -0.437202       -11.8969 
  78   2.0000      -0.432885       -11.7794 
  79   2.0000      -0.425385       -11.5753 
  80   2.0000      -0.422857       -11.5065 
  81   2.0000      -0.417023       -11.3478 
  82   2.0000      -0.412584       -11.2270 
  83   2.0000      -0.404499       -11.0070 
  84   2.0000      -0.391206       -10.6453 
  85   2.0000      -0.389731       -10.6051 
  86   2.0000      -0.380873       -10.3641 
  87   2.0000      -0.377554       -10.2738 
  88   2.0000      -0.373121       -10.1531 
  89   2.0000      -0.369342       -10.0503 
  90   2.0000      -0.362443        -9.8626 
  91   2.0000      -0.355163        -9.6645 
  92   2.0000      -0.352707        -9.5976 
  93   2.0000      -0.351375        -9.5614 
  94   2.0000      -0.350132        -9.5276 
  95   2.0000      -0.342072        -9.3083 
[...]

* The epsilon (eps) is given for a Dirac delta lineshape.
** The dipole moment derivative (T) already includes vibrational overlap.

The first frequency considered to be a vibration is 6
The total number of vibrations considered is 150


--------------------------
THERMOCHEMISTRY AT 298.15K
--------------------------

Temperature         ...   298.15 K
Pressure            ...     1.00 atm
Total Mass          ...   415.44 AMU
Quasi RRHO          ...     True
Cut-Off Frequency   ...     1.00 cm^-1

Throughout the following assumptions are being made:
  (1) The electronic state is orbitally nondegenerate
  (2) There are no thermally accessible electronically excited states
  (3) Hindered rotations indicated by low frequency modes are not
      treated as such but are treated as vibrations and this may
      cause some error
  (4) All equations used are the standard statistical mechanics
      equations for an ideal gas
  (5) All vibrations are strictly harmonic

freq.       7.63  E(vib)   ...       0.58 
freq.      22.96  E(vib)   ...       0.56 
freq.      25.22  E(vib)   ...       0.56 
freq.      32.96  E(vib)   ...       0.55 
freq.      50.15  E(vib)   ...       0.52 
freq.      61.20  E(vib)   ...       0.51 
freq.      69.67  E(vib)   ...       0.50 
freq.      72.86  E(vib)   ...       0.49 
freq.      86.57  E(vib)   ...       0.48 
freq.      93.84  E(vib)   ...       0.47 
freq.     118.19  E(vib)   ...       0.44 
freq.     137.02  E(vib)   ...       0.42 
freq.     141.18  E(vib)   ...       0.41 
freq.     155.98  E(vib)   ...       0.40 
freq.     159.95  E(vib)   ...       0.39 
freq.     172.35  E(vib)   ...       0.38 
freq.     212.79  E(vib)   ...       0.34 
freq.     230.33  E(vib)   ...       0.32 
freq.     238.23  E(vib)   ...       0.32 
freq.     252.04  E(vib)   ...       0.30 
freq.     263.71  E(vib)   ...       0.29 
freq.     274.83  E(vib)   ...       0.28 
freq.     290.06  E(vib)   ...       0.27 
freq.     305.30  E(vib)   ...       0.26 
freq.     314.91  E(vib)   ...       0.25 
freq.     322.57  E(vib)   ...       0.25 
freq.     347.58  E(vib)   ...       0.23 
freq.     380.79  E(vib)   ...       0.21 
freq.     409.83  E(vib)   ...       0.19 
freq.     414.98  E(vib)   ...       0.19 
freq.     424.81  E(vib)   ...       0.18 
freq.     447.57  E(vib)   ...       0.17 
freq.     455.98  E(vib)   ...       0.16 
freq.     473.55  E(vib)   ...       0.15 
freq.     491.80  E(vib)   ...       0.14 
freq.     520.57  E(vib)   ...       0.13 
freq.     534.57  E(vib)   ...       0.13 
freq.     545.12  E(vib)   ...       0.12 
freq.     546.91  E(vib)   ...       0.12 
freq.     555.33  E(vib)   ...       0.12 
freq.     594.94  E(vib)   ...       0.10 
freq.     626.43  E(vib)   ...       0.09 
freq.     627.61  E(vib)   ...       0.09 
freq.     658.64  E(vib)   ...       0.08 
freq.     678.06  E(vib)   ...       0.08 
freq.     695.86  E(vib)   ...       0.07 
freq.     698.73  E(vib)   ...       0.07 
freq.     703.02  E(vib)   ...       0.07 
freq.     717.99  E(vib)   ...       0.07 
freq.     722.90  E(vib)   ...       0.07 
freq.     739.45  E(vib)   ...       0.06 
freq.     763.94  E(vib)   ...       0.06 
freq.     768.95  E(vib)   ...       0.06 
freq.     779.17  E(vib)   ...       0.05 
freq.     782.79  E(vib)   ...       0.05 
freq.     792.06  E(vib)   ...       0.05 
freq.     821.39  E(vib)   ...       0.05 
freq.     829.88  E(vib)   ...       0.04 
freq.     834.34  E(vib)   ...       0.04 
freq.     866.05  E(vib)   ...       0.04 
freq.     885.54  E(vib)   ...       0.04 
freq.     905.34  E(vib)   ...       0.03 
freq.     910.10  E(vib)   ...       0.03 
freq.     919.36  E(vib)   ...       0.03 
freq.     946.71  E(vib)   ...       0.03 
freq.     950.33  E(vib)   ...       0.03 
freq.     966.46  E(vib)   ...       0.03 
freq.     979.19  E(vib)   ...       0.03 
freq.     984.33  E(vib)   ...       0.02 
freq.     999.75  E(vib)   ...       0.02 
freq.    1007.09  E(vib)   ...       0.02 
freq.    1015.10  E(vib)   ...       0.02 
freq.    1032.01  E(vib)   ...       0.02 
freq.    1032.55  E(vib)   ...       0.02 
freq.    1044.93  E(vib)   ...       0.02 
freq.    1048.46  E(vib)   ...       0.02 
freq.    1052.16  E(vib)   ...       0.02 
freq.    1068.71  E(vib)   ...       0.02 
freq.    1074.16  E(vib)   ...       0.02 
freq.    1096.46  E(vib)   ...       0.02 
freq.    1106.77  E(vib)   ...       0.02 
freq.    1119.49  E(vib)   ...       0.01 
freq.    1149.35  E(vib)   ...       0.01 
freq.    1152.21  E(vib)   ...       0.01 
freq.    1160.18  E(vib)   ...       0.01 
freq.    1164.29  E(vib)   ...       0.01 
freq.    1167.95  E(vib)   ...       0.01 
freq.    1173.79  E(vib)   ...       0.01 
freq.    1181.72  E(vib)   ...       0.01 
freq.    1200.92  E(vib)   ...       0.01 
freq.    1203.66  E(vib)   ...       0.01 
freq.    1207.74  E(vib)   ...       0.01 
freq.    1249.56  E(vib)   ...       0.01 
freq.    1253.17  E(vib)   ...       0.01 
freq.    1258.06  E(vib)   ...       0.01 
freq.    1269.03  E(vib)   ...       0.01 
freq.    1289.21  E(vib)   ...       0.01 
freq.    1295.63  E(vib)   ...       0.01 
freq.    1312.74  E(vib)   ...       0.01 
freq.    1326.64  E(vib)   ...       0.01 
freq.    1345.59  E(vib)   ...       0.01 
freq.    1353.49  E(vib)   ...       0.01 
freq.    1360.50  E(vib)   ...       0.01 
freq.    1377.10  E(vib)   ...       0.01 
freq.    1387.06  E(vib)   ...       0.00 
freq.    1400.02  E(vib)   ...       0.00 
freq.    1440.87  E(vib)   ...       0.00 
freq.    1444.76  E(vib)   ...       0.00 
freq.    1451.22  E(vib)   ...       0.00 
freq.    1452.10  E(vib)   ...       0.00 
freq.    1460.21  E(vib)   ...       0.00 
freq.    1465.06  E(vib)   ...       0.00 
freq.    1466.08  E(vib)   ...       0.00 
freq.    1472.17  E(vib)   ...       0.00 
freq.    1481.28  E(vib)   ...       0.00 
freq.    1495.53  E(vib)   ...       0.00 
freq.    1499.68  E(vib)   ...       0.00 
freq.    1511.62  E(vib)   ...       0.00 
freq.    1542.72  E(vib)   ...       0.00 
freq.    1548.46  E(vib)   ...       0.00 
freq.    1621.28  E(vib)   ...       0.00 
freq.    1630.76  E(vib)   ...       0.00 
freq.    1635.12  E(vib)   ...       0.00 
freq.    1637.99  E(vib)   ...       0.00 
freq.    1656.73  E(vib)   ...       0.00 
freq.    1660.52  E(vib)   ...       0.00 
freq.    1667.80  E(vib)   ...       0.00 
freq.    1669.45  E(vib)   ...       0.00 
freq.    1786.74  E(vib)   ...       0.00 
freq.    3009.27  E(vib)   ...       0.00 
freq.    3011.37  E(vib)   ...       0.00 
freq.    3069.06  E(vib)   ...       0.00 
freq.    3090.41  E(vib)   ...       0.00 
freq.    3094.66  E(vib)   ...       0.00 
freq.    3120.37  E(vib)   ...       0.00 
freq.    3140.49  E(vib)   ...       0.00 
freq.    3151.04  E(vib)   ...       0.00 
freq.    3175.70  E(vib)   ...       0.00 
freq.    3182.54  E(vib)   ...       0.00 
freq.    3184.17  E(vib)   ...       0.00 
freq.    3185.12  E(vib)   ...       0.00 
freq.    3186.02  E(vib)   ...       0.00 
freq.    3189.40  E(vib)   ...       0.00 
freq.    3196.09  E(vib)   ...       0.00 
freq.    3197.35  E(vib)   ...       0.00 
freq.    3201.47  E(vib)   ...       0.00 
freq.    3207.03  E(vib)   ...       0.00 
freq.    3211.16  E(vib)   ...       0.00 
freq.    3218.41  E(vib)   ...       0.00 
freq.    3238.27  E(vib)   ...       0.00 

------------
INNER ENERGY
------------

The inner energy is: U= E(el) + E(ZPE) + E(vib) + E(rot) + E(trans)
    E(el)   - is the total energy from the electronic structure calculation
              = E(kin-el) + E(nuc-el) + E(el-el) + E(nuc-nuc)
    E(ZPE)  - the the zero temperature vibrational energy from the frequency calculation
    E(vib)  - the the finite temperature correction to E(ZPE) due to population
              of excited vibrational states
    E(rot)  - is the rotational thermal energy
    E(trans)- is the translational thermal energy

Summary of contributions to the inner energy U:
Electronic energy                ...  -1394.51069797 Eh
Zero point energy                ...      0.40940089 Eh     256.90 kcal/mol
Thermal vibrational correction   ...      0.02365888 Eh      14.85 kcal/mol
Thermal rotational correction    ...      0.00141627 Eh       0.89 kcal/mol
Thermal translational correction ...      0.00141627 Eh       0.89 kcal/mol
-----------------------------------------------------------------------
Total thermal energy                  -1394.07480566 Eh


Summary of corrections to the electronic energy:
(perhaps to be used in another calculation)
Total thermal correction                  0.02649142 Eh      16.62 kcal/mol
Non-thermal (ZPE) correction              0.40940089 Eh     256.90 kcal/mol
-----------------------------------------------------------------------
Total correction                          0.43589231 Eh     273.53 kcal/mol


--------
ENTHALPY
--------

The enthalpy is H = U + kB*T
                kB is Boltzmann's constant
Total thermal energy              ...  -1394.07480566 Eh 
Thermal Enthalpy correction       ...      0.00094421 Eh       0.59 kcal/mol
-----------------------------------------------------------------------
Total Enthalpy                    ...  -1394.07386145 Eh


Note: Only C1 symmetry has been detected, increase convergence thresholds 
      if your molecule has a higher symmetry. Symmetry factor of 1.0 is   
      used for the rotational entropy correction. 
 

Note: Rotational entropy computed according to Herzberg 
Infrared and Raman Spectra, Chapter V,1, Van Nostrand Reinhold, 1945 
Point Group:  C1, Symmetry Number:   1  
Rotational constants in cm-1:     0.008522     0.003092     0.002769 

Vibrational entropy computed according to the QRRHO of S. Grimme
Chem.Eur.J. 2012 18 9955 using a reference frequency of 100.0 cm-1


-------
ENTROPY
-------

The entropy contributions are T*S = T*(S(el)+S(vib)+S(rot)+S(trans))
     S(el)   - electronic entropy
     S(vib)  - vibrational entropy
     S(rot)  - rotational entropy
     S(trans)- translational entropy
The entropies will be listed as multiplied by the temperature to get
units of energy

Electronic entropy                ...      0.00000000 Eh      0.00 kcal/mol
Vibrational entropy               ...      0.04270649 Eh     26.80 kcal/mol
Rotational entropy                ...      0.01726884 Eh     10.84 kcal/mol
Translational entropy             ...      0.02088827 Eh     13.11 kcal/mol
-----------------------------------------------------------------------
Final entropy term                ...      0.08086360 Eh     50.74 kcal/mol

In case the symmetry of your molecule has not been determined correctly
or in case you have a reason to use a different symmetry number we print 
out the resulting rotational entropy values for sn=1,12:

 non-linear molecules -----------------------------------
|  sn= 1 | S(rot)=       0.01726884 Eh     10.84 kcal/mol|
|  sn= 2 | S(rot)=       0.01661438 Eh     10.43 kcal/mol|
|  sn= 3 | S(rot)=       0.01623155 Eh     10.19 kcal/mol|
|  sn= 4 | S(rot)=       0.01595992 Eh     10.01 kcal/mol|
|  sn= 5 | S(rot)=       0.01574924 Eh      9.88 kcal/mol|
|  sn= 6 | S(rot)=       0.01557709 Eh      9.77 kcal/mol|
|  sn= 7 | S(rot)=       0.01543155 Eh      9.68 kcal/mol|
|  sn= 8 | S(rot)=       0.01530547 Eh      9.60 kcal/mol|
|  sn= 9 | S(rot)=       0.01519426 Eh      9.53 kcal/mol|
|  sn=10 | S(rot)=       0.01509478 Eh      9.47 kcal/mol|
|  sn=11 | S(rot)=       0.01500479 Eh      9.42 kcal/mol|
|  sn=12 | S(rot)=       0.01492264 Eh      9.36 kcal/mol|
 linear molecules ---------------------------------------
|  Dinfh | S(rot)=       0.01088649 Eh      6.83 kcal/mol|
|  Cinfv | S(rot)=       0.01154095 Eh      7.24 kcal/mol|
 --------------------------------------------------------


-------------------
GIBBS FREE ENERGY
-------------------

The Gibbs free energy is G = H - T*S

Total enthalpy                    ...  -1394.07386145 Eh 
Total entropy correction          ...     -0.08086360 Eh    -50.74 kcal/mol
-----------------------------------------------------------------------
Final Gibbs free energy         ...  -1394.15472504 Eh

For completeness - the Gibbs free energy minus the electronic energy
G-E(el)                           ...      0.35597292 Eh    223.38 kcal/mol


Maximum memory used throughout the entire PROP-calculation: 396.6 MB

--------------------------------
SUGGESTED CITATIONS FOR THIS RUN
--------------------------------

Below you find a list of papers that are relevant to this ORCA run
We neither can nor want to force you to cite these papers, but we appreciate if you do
You receive ORCA, which is the product of decades of hard work by many enthusiastic individuals, for free
The only thing we kindly ask in return is that you cite our papers,
We deeply appreciate it, if you show your appreciation for ORCA by not just citing the generic ORCA reference.

Please note that relegating all ORCA citations to the supporting information does *not* help us.
SI sections are not indexed - citations you put there will not count into any citation statistics
But we need these citations in order to attract the funding resources that allow us to do what we are doing

Therefore, if you are a happy ORCA user, please consider citing a few of the papers listed below in the main body of your paper

In addition to the list printed below, the program has created the file input\CMR_GOLD_092_optfreq.bibtex that contains the list in bibtex format
You can import this file easily into all common literature databanks and citation aid programs

It goes without saying that in many instances, there are alternative algorithms to achieve similar
results as the ones you have gotten from ORCA. It is, of course, also the case that in some instances
ORCA just re-implements algorithms worked out by others. We are fully aware of that and we are also
fully appreciative of our colleagues work. Hence this citation list should not be read as indicating
that the listed papers, which are focused on our own work, are the only ones worth citing. It simply
meant to make it easier for users to cite ORCA specific papers. It is not a substitute for doing your
own literature research and citing the relevant literature in a scientifically appropriate manner.

List of essential papers. We consider these as the minimum necessary citations

  1. Neese, F.
     Software update: the ORCA program system, version 6.0
     WIRES Comput. Molec. Sci. 2025 15(1), e70019
     doi.org/10.1002/wcms.70019

List of papers to cite with high priority. The work reported in these papers was absolutely
necessary for this run to complete.
Our perspective: the developers of density functionals and basis sets usually get cited in chemistry papers
Good! But without the algorithms to do something with them, the functionals or basis sets would not do anything.
Hence, in our opinion, the algorithm design and method developments papers are equally worthy of getting cited

  1. Neese, F.
     An improvement of the resolution of the identity approximation for the formation of the Coulomb matrix
     J. Comp. Chem. 2003 24(14), 1740-1747
     doi.org/10.1002/jcc.10318
  2. Neese, F.; Wennmohs, F.; Hansen, A.; Becker, U.
     Efficient, approximate and parallel Hartree-Fock and hybrid DFT calculations. A 'chain-of-spheres' algorithm for the Hartree-Fock exchange
     Chem. Phys. 2009 356(1-3), 98-109
     doi.org/10.1016/j.chemphys.2008.10.036
  3. Grimme, S.; Antony, J.; Ehrlich, S.; Krieg, H.
     A consistent and accurate ab initio parametrization of density functional dispersion correction (DFT-D) for the 94 elements H-Pu
     J. Chem. Phys. 2010 132 , 154104
     doi.org/10.1063/1.3382344
  4. Grimme, S.; Ehrlich, S.; Goerigk, L.
     Effect of the damping function in dispersion corrected density functional theory
     J. Comput. Chem. 2011 32(7), 1456-1465
     doi.org/10.1002/jcc.21759
  5. Bykov, D.; Petrenko, T.; Izsak, R.; Kossmann, S.; Becker, U.; Valeev, E.; Neese, F.
     Efficient implementation of the analytic second derivatives of Hartree-Fock and hybrid DFT energies: a detailed analysis of different approximations
     Molec. Phys. 2015 113 , 1961-1977
     doi.org/10.1080/00268976.2015.1025114
  6. Garcia-Rates, M.; Neese, F.
     Efficient implementation of the analytical second derivatives of hartree-fock and hybrid DFT energies within the framework of the conductor-like polarizable continuum model
     J. Comput. Chem. 2019 40 , 1816-1828
     doi.org/10.1002/jcc.25833
  7. Garcia-Rates, M.; Neese, F.
     Effect of the Solute Cavity on the Solvation Energy and its Derivatives within the Framework of the Gaussian Charge Scheme
     J. Comput. Chem. 2020 41 , 922-939
     doi.org/10.1002/jcc.26139
  8. Helmich-Paris, B.; de Souza, B.; Neese, F.; Izsák, R.
     An improved chain of spheres for exchange algorithm
     J. Chem. Phys. 2021 155(10), 104109
     doi.org/10.1063/5.0058766
  9. Neese, F.
     The SHARK Integral Generation and Digestion System
     J. Comp. Chem. 2022 44(3), 381
     doi.org/10.1002/jcc.26942

List of suggested additional citations. These are papers that are important in the 'surrounding' of 
of this run, or papers that preceded the highly important papers. If you like your results we are grateful for a citation.

  1. Izsak, R.; Neese, F.
     An overlap fitted chain of spheres exchange method
     J. Chem. Phys. 2011 135 , 144105
     doi.org/10.1063/1.3646921
  2. Izsak, R.; Hansen, A.; Neese, F.
     The resolution of identity and chain of spheres approximations for the LPNO-CCSD singles Fock term
     Molec. Phys. 2012 110 , 2413-2417
     doi.org/10.1080/00268976.2012.687466
  3. Neese, F.
     The ORCA program system
     WIRES Comput. Molec. Sci. 2012 2(1), 73-78
     doi.org/10.1002/wcms.81
  4. Izsak, R.; Neese, F.; Klopper, W.
     Robust fitting techniques in the chain of spheres approximation to the Fock exchange: The role of the complementary space
     J. Chem. Phys. 2013 139 , 
     doi.org/10.1063/1.4819264
  5. Neese, F.
     Software update: the ORCA program system, version 4.0
     WIRES Comput. Molec. Sci. 2018 8(1), 1-6
     doi.org/10.1002/wcms.1327
  6. Neese, F.; Wennmohs, F.; Becker, U.; Riplinger, C.
     The ORCA quantum chemistry program package
     J. Chem. Phys. 2020 152(22), 224108
     doi.org/10.1063/5.0004608
  7. Neese, F.
     Software update: The ORCA program system—Version 5.0
     WIRES Comput. Molec. Sci. 2022 12(1), e1606
     doi.org/10.1002/wcms.1606

List of optional additional citations

  1. Neese, F.
     Approximate second-order SCF convergence for spin unrestricted wavefunctions
     Chem. Phys. Lett. 2000 325(1-3), 93-98
     doi.org/10.1016/s0009-2614(00)00662-x

Timings for individual modules:

Sum of individual times          ...     4125.241 sec (=  68.754 min)
Startup calculation              ...       82.565 sec (=   1.376 min)   2.0 %
SCF iterations                   ...     1923.481 sec (=  32.058 min)  46.6 %
Property integrals               ...      319.713 sec (=   5.329 min)   7.8 %
SCF Response                     ...      562.701 sec (=   9.378 min)  13.6 %
Property calculations            ...      389.386 sec (=   6.490 min)   9.4 %
SCF Gradient evaluation          ...      846.210 sec (=  14.103 min)  20.5 %
Geometry relaxation              ...        1.185 sec (=   0.020 min)   0.0 %
                             ****ORCA TERMINATED NORMALLY****
TOTAL RUN TIME: 0 days 1 hours 8 minutes 56 seconds 460 msec
