
                                 *****************
                                 * O   R   C   A *
                                 *****************

                                            #,                                       
                                            ###                                      
                                            ####                                     
                                            #####                                    
                                            ######                                   
                                           ########,                                 
                                     ,,################,,,,,                         
                               ,,#################################,,                 
                          ,,##########################################,,             
                       ,#########################################, ''#####,          
                    ,#############################################,,   '####,        
                  ,##################################################,,,,####,       
                ,###########''''           ''''###############################       
              ,#####''   ,,,,##########,,,,          '''####'''          '####       
            ,##' ,,,,###########################,,,                        '##       
           ' ,,###''''                  '''############,,,                           
         ,,##''                                '''############,,,,        ,,,,,,###''
      ,#''                                            '''#######################'''  
     '                                                          ''''####''''         
             ,#######,   #######,   ,#######,      ##                                
            ,#'     '#,  ##    ##  ,#'     '#,    #''#        ,####,    ,#,          
            ##       ##  ##   ,#'  ##            #'  '#       #'       ,# #          
            ##       ##  #######   ##           ,######,      #####,      #          
            '#,     ,#'  ##    ##  '#,     ,#' ,#      #,     #,   #      #          
             '#######'   ##     ##  '#######'  #'      '#     '####' #    #          



                #########################################################
                #                        -***-                          #
                #          Department of theory and spectroscopy        #
                #                                                       #
                #                      Frank Neese                      #
                #                                                       #
                #     Directorship, Architecture, Infrastructure        #
                #                    SHARK, DRIVERS                     #
                #        Core code/Algorithms in most modules           #
                #                                                       #
                #        Max Planck Institute fuer Kohlenforschung      #
                #                Kaiser Wilhelm Platz 1                 #
                #                 D-45470 Muelheim/Ruhr                 #
                #                      Germany                          #
                #                                                       #
                #                  All rights reserved                  #
                #                        -***-                          #
                #########################################################


                         Program Version 6.1.1  -  RELEASE   -


 With contributions from (in alphabetic order):
[Max-Planck-Institut fuer Kohlenforschung]                               
  Daniel Aravena         : Magnetic Suceptibility                        
  Michael Atanasov       : Ab Initio Ligand Field Theory (pilot matlab implementation)
  Alexander A. Auer      : GIAO ZORA, VPT2 properties, NMR spectrum      
  Ute Becker             : All parallelization in ORCA, NUMFREQ, NUMCALC 
  Giovanni Bistoni       : ED, misc. LED, open-shell LED, HFLD           
  Dmytro Bykov           : pre 5.0 version of the SCF Hessian            
  Marcos Casanova-Páez   : Triplet and SCS-CIS(D). UHF-(DLPNO)-IP/EA/STEOM-CCSD. UHF-CVS-IP/STEOM-CCSD   
  Vijay G. Chilkuri      : MRCI spin determinant printing, contributions to CSF-ICE 
  Pauline Colinet        : FMM embedding                                 
  Dipayan Datta          : RHF DLPNO-CCSD density                        
  Achintya Kumar Dutta   : EOM-CC, STEOM-CC                              
  Nicolas Foglia         : Exact transition moments, OPA infrastructure, MCD improvements    
  Dmitry Ganyushin       : Spin-Orbit,Spin-Spin,Magnetic field MRCI      
  Miquel Garcia-Rates    : C-PCM and meta-GGA Hessian, CCSD/C-PCM, Gaussian charge scheme 
  Tiago L. C. Gouveia    : GS-ROHF, GS-ROCIS                             
  Yang Guo               : DLPNO-NEVPT2, F12-NEVPT2, CIM, IAO-localization        
  Andreas Hansen         : Spin unrestricted coupled pair/coupled cluster methods 
  Ingolf Harden          : AUTO-CI MPn and infrastructure                
  Benjamin Helmich-Paris : MC-RPA, TRAH-(SCF,CASSCF), AVAS, COSX integrals, SCF dyn. polar., MC-PDFT, srDFT 
  Lee Huntington         : MR-EOM, pCC                                   
  Robert Izsak           : Overlap fitted RIJCOSX, COSX-SCS-MP3, EOM     
  Riya Kayal             : Wick's Theorem for AUTO-CI, AUTO-CI UHF-CCSDT 
  Emily Kempfer          : AUTO-CI RHF CISDT and CCSDT, approximate NEVPT4
  Christian Kollmar      : KDIIS, OOCD, Brueckner-CCSD(T), CCSD density, CASPT2, CASPT2-K, improved NEVPT2 
  Axel Koslowski         : Symmetry handling                             
  Simone Kossmann        : meta-GGA functionals, TD-DFT gradient, OOMP2, (MP2 Hessian; deprecated post 5.0) 
  Lucas Lang             : DCDCAS, Hyperfine gauge corrections, ICE-SOC+SSC
  Marvin Lechner         : AUTO-CI (C++ implementation), FIC-MRCC        
  Spencer Leger          : CASSCF response                               
  Dagmar Lenk            : GEPOL surface, SMD, ORCA-2-JSON               
  Dimitrios Liakos       : Extrapolation schemes; Compound Job, Property file
  Dimitrios Manganas     : Further ROCIS development; embedding schemes. LFT, Crystal Embedding 
  Dimitrios Pantazis     : SARC Basis sets                               
  Anastasios Papadopoulos: AUTO-CI, single reference methods and gradients 
  Taras Petrenko         : pre 6.0 DFT Hessian and TD-DFT gradient,  ECA, NRVS 
  Petra Pikulova         : Analytic Raman intensities                    
  Peter Pinski           : DLPNO-MP2, DLPNO-MP2 Gradient                 
  Shashank Vittal Rao    : ES-AILFT, MagRelax                            
  Christoph Reimann      : Effective Core Potentials                     
  Marius Retegan         : Local ZFS, SOC                                
  Christoph Riplinger    : Optimizer, TS searches, QM/MM, DLPNO-CCSD(T), (RO)-DLPNO pert. Triples 
  Michael Roemelt        : Original ROCIS implementation, recursive CI coupling coefficients
  Masaaki Saitow         : Open-shell DLPNO-CCSD energy and density      
  Barbara Sandhoefer     : DKH picture change effects                    
  Yorick L. A. Schmerwitz: GMF and freeze-and-release deltaSCF, NEB S-IDPP initial path                    
  Kantharuban Sivalingam : CASSCF convergence/infrastructure, NEVPT2, NEVPT3, NEVPT4(SD), FIC-MRCI and CEPA variants
  Bernardo de Souza      : ESD, SOC TD-DFT                               
  Georgi L. Stoychev     : AutoAux, RI-MP2 NMR, DLPNO-MP2 response, X2C  
  Van Anh Tran           : RI-MP2 g-tensors                              
  Willem Van den Heuvel  : Paramagnetic NMR                              
  Zikuan Wang            : NOTCH, Electric field optimization            
  Frank Wennmohs         : Technical directorship and infrastructure     
  Hang Xu                : AUTO-CI-Response properties                   
                                                                         
[FACCTs GmbH]                                                            
  Markus Bursch, Nicolas Foglia, Miquel Garcia-Rates, Ingolf Harden, Hagen Neugebauer, Anastasios Papadopoulos, 
  Christoph Riplinger, Bernardo de Souza, Georgi L. Stoychev                                                    
                                                                 
  APM, various basis sets, CI-OPT, improved COSX, DLPNO-Multilevel,           
  DOCKER, DRACO, updates on ESD, Fragmentator, GOAT, IRC, LR-CPCM, L-BFGS, MBIS, meta-GGA TD-DFT gradient, ML-optimized integration grids, 
  MM, NACMEs, nearIR, NEB, NEB-TS, NL-DFT gradient (VV10), 2- and 3-layer-ONIOM, interface openCOSMO-RS, QMMM,   
  Crystal-QMMM, RESP, rigid body optimization, SF, symmetry and pop. for TD-DFT, various functionals, SOLVATOR                                   
                                                                         
[Other institutions]                                                     
  V. Asgeirsson          : NEB                                           
  Christoph Bannwarth    : sTDA-DFT, sTD-DFT, PBEh-3c, B97-3c, D3        
  Giovanni Bistoni       : ETS/NOCV, ADLD/ADEX, COVALED                  
  Martin Brehm           : Molecular dynamics                            
  Ronald Cardenas        : ETS/NOCV                                      
  Martina Colucci        : COVALED                                       
  Sebastian Ehlert       : rSCAN, r2SCAN, r2SCAN-3c, D4, dhf basis sets  
  Marvin Friede          : D4 for Fr, Ra, Ac-Lr                          
  Lars Goerigk           : TD-DFT with DH, B97 family of functionals     
  Stefan Grimme          : VdW corrections, initial TS optimization, DFT functionals, gCP, sTDA/sTD-DF 
  Waldemar Hujo          : DFT-NL                                        
  H. Jonsson             : NEB                                           
  Holger Kruse           : gCP                                           
  Marcel Mueller         : wB97X-3c, vDZP basis set                      
  Hagen Neugebauer       : wr2SCAN, Native XTB                           
  Gianluca Regni         : ADLD/ADEX                                     
  Tobias Risthaus        : pre 6.0 range-separated hybrid DFT and stability analysis
  Lukas Wittmann         : regularized MP2, r2SCAN double-hybrids, wr2SCAN        
                                                                         
We gratefully acknowledge several colleagues who have allowed us to      
interface, adapt or use parts of their codes:                            
  Ed Valeev, F. Pavosevic, A. Kumar             : LibInt (2-el integral package), F12 methods 
  Garnet Chan, S. Sharma, J. Yang, R. Olivares  : DMRG                   
  Ulf Ekstrom                                   : XCFun DFT Library      
  Mihaly Kallay                                 : mrcc  (arbitrary order and MRCC methods)
  Frank Weinhold                                : gennbo (NPA and NBO analysis)           
  Simon Mueller                                 : openCOSMO-RS                            
  Christopher J. Cramer and Donald G. Truhlar   : smd solvation model                     
  S Lehtola, MJT Oliveira, MAL Marques          : LibXC Library                           
  Liviu Ungur et al                             : ANISO software                          


 Your calculation uses the libint2 library for the computation of 2-el integrals
 For citations please refer to: http://libint.valeyev.net

 Your ORCA version has been built with support for libXC version: 7.0.0
 For citations please refer to: https://libxc.gitlab.io

 This ORCA versions uses:
   CBLAS   interface :  Fast vector & matrix operations
   LAPACKE interface :  Fast linear algebra routines
   Shared memory     :  Shared parallel matrices


  ***********************************
  * Starting time: Thu Apr 30 20:27:11 2026
  * Host name:     AHMET
  * Process ID:    17604
  * Working dir.:  C:\orca_tests\DFT_FINAL_PROPERTIES\079\01_opt_freq
  ***********************************

NOTE: MaxCore=3000 MB was set to SCF,MP2,MDCI,CIPSI,MRCI,RASCI and CIS
      => If you want to overwrite this, your respective input block should be placed after the MaxCore statement


***************************************
The coordinates will be read from file: geom.xyz
***************************************


Your calculation utilizes the atom-pairwise dispersion correction
with the Becke-Johnson damping scheme (D3BJ)


================================================================================

----- Orbital basis set information -----
Your calculation utilizes the basis: def2-SVP
   F. Weigend and R. Ahlrichs, Phys. Chem. Chem. Phys. 7, 3297 (2005).

----- AuxJ basis set information -----
Your calculation utilizes the auxiliary basis: def2/J
   H-Rn: F. Weigend, Phys. Chem. Chem. Phys. 8, 1057 (2006).
   Fr-Lr: K. Eichkorn, F. Weigend, O. Treutler, R. Ahlrichs; Theor. Chem. Acc. 97, 119 (1997).

================================================================================
                                        WARNINGS
                       Please study these warnings very carefully!
================================================================================


WARNING: Geometry Optimization
  ===> : Switching off AutoStart
         For restart on a previous wavefunction, please use MOREAD

================================================================================
                                       INPUT FILE
================================================================================
NAME = CMR_GOLD_079_correct_opt_pal8.inp
|  1> ! B3LYP D3BJ def2-SVP CPCM(Water) TightSCF RIJCOSX def2/J Opt Freq
|  2> 
|  3> %maxcore 3000
|  4> 
|  5> %pal
|  6>   nprocs 8
|  7> end
|  8> 
|  9> %geom
| 10>   MaxIter 300
| 11> end
| 12> 
| 13> * xyzfile 0 1 geom.xyz
| 14> 
| 15>                          ****END OF INPUT****
================================================================================

                       *****************************
                       * Geometry Optimization Run *
                       *****************************

Geometry optimization settings:
Update method            Update   .... BFGS
Choice of coordinates    CoordSys .... (2022) Redundant Internals
Initial Hessian          InHess   .... Almloef's Model
Max. no of cycles        MaxIter  .... 300

Convergence Tolerances:
Energy Change            TolE     ....  5.0000e-06 Eh
Max. Gradient            TolMAXG  ....  3.0000e-04 Eh/bohr
RMS Gradient             TolRMSG  ....  1.0000e-04 Eh/bohr
Max. Displacement        TolMAXD  ....  4.0000e-03 bohr
RMS Displacement         TolRMSD  ....  2.0000e-03 bohr
Strict Convergence                .... False

------------------------------------------------------------------------------
                        ORCA OPTIMIZATION COORDINATE SETUP
------------------------------------------------------------------------------

The optimization will be done in redundant internal coordinates (2022)
Making redundant internal coordinates   ...  (2022 redundants) done
Evaluating the initial hessian          ...  (Almloef) done
Evaluating the coordinates              ...  done
Calculating the B-matrix                .... done
Calculating the G-matrix                .... done
The number of degrees of freedom        ....  217

    -----------------------------------------------------------------
                    Redundant Internal Coordinates


    -----------------------------------------------------------------
         Definition                    Initial Value    Approx d2E/dq
    -----------------------------------------------------------------
      1. B(C   1,O   0)                  1.2293         1.009733   
      2. B(N   2,C   1)                  1.3734         0.594868   
      3. B(C   3,N   2)                  1.4460         0.455568   
      4. B(C   4,C   3)                  1.4841         0.442265   
      5. B(C   5,C   4)                  1.3748         0.660739   
      6. B(N   6,C   5)                  1.3907         0.558117   
      7. B(C   7,N   6)                  1.4143         0.511821   
      8. B(C   8,C   7)                  1.4925         0.428739   
      9. B(O   9,C   8)                  1.2258         1.022812   
     10. B(C  10,C   7)                  1.3505         0.722257   
     11. B(C  11,C  10)                  1.4520         0.497599   
     12. B(C  12,C  11)                  1.3857         0.634637   
     13. B(O  13,C  12)                  1.4016         0.536345   
     14. B(O  13,C   8)                  1.3932         0.552986   
     15. B(C  14,C  12)                  1.3923         0.619614   
     16. B(C  15,C  14)                  1.3933         0.617171   
     17. B(C  16,C  15)                  1.3967         0.609587   
     18. B(C  17,C  16)                  1.3987         0.605207   
     19. B(C  17,C  11)                  1.3963         0.610433   
     20. B(N  18,N   6)                  1.3773         0.525100   
     21. B(N  19,N  18)                  1.3225         0.642190   
     22. B(N  19,C   4)                  1.3615         0.621297   
     23. B(C  20,C   1)                  1.4906         0.431821   
     24. B(C  21,C  20)                  1.4034         0.594722   
     25. B(C  22,C  21)                  1.3988         0.604905   
     26. B(C  23,C  22)                  1.3940         0.615593   
     27. B(C  24,C  23)                  1.3936         0.616574   
     28. B(C  25,C  24)                  1.3940         0.615717   
     29. B(C  25,C  20)                  1.4048         0.591767   
     30. B(O  26,C  25)                  1.3709         0.600355   
     31. B(H  27,N   2)                  1.0115         0.430319   
     32. B(H  27,N  19)                  2.3922         0.010000   
     33. B(H  28,C   3)                  1.0949         0.353712   
     34. B(H  29,C   3)                  1.0953         0.353214   
     35. B(H  30,C   5)                  1.0786         0.375459   
     36. B(H  31,C  10)                  1.0882         0.362435   
     37. B(H  32,C  14)                  1.0861         0.365307   
     38. B(H  33,C  15)                  1.0874         0.363586   
     39. B(H  34,C  16)                  1.0878         0.363052   
     40. B(H  35,C  17)                  1.0876         0.363316   
     41. B(H  36,C  21)                  1.0855         0.366042   
     42. B(H  37,C  22)                  1.0877         0.363122   
     43. B(H  38,C  23)                  1.0872         0.363810   
     44. B(H  39,C  24)                  1.0869         0.364242   
     45. B(H  40,O   0)                  1.7373         0.029912   
     46. B(H  40,O  26)                  0.9839         0.476269   
     47. A(O   0,C   1,C  20)          119.3521         0.441128   
     48. A(O   0,C   1,N   2)          122.7474         0.464491   
     49. A(N   2,C   1,C  20)          117.8711         0.401386   
     50. A(C   3,N   2,H  27)          116.7083         0.340185   
     51. A(C   1,N   2,H  27)          121.5522         0.355820   
     52. A(C   1,N   2,C   3)          121.1375         0.402592   
     53. A(N   2,C   3,H  29)          109.3048         0.332039   
     54. A(C   4,C   3,H  28)          110.4554         0.332494   
     55. A(N   2,C   3,H  28)          108.0368         0.332116   
     56. A(H  28,C   3,H  29)          108.4938         0.289147   
     57. A(N   2,C   3,C   4)          109.1312         0.384675   
     58. A(C   4,C   3,H  29)          111.3510         0.332417   
     59. A(C   5,C   4,N  19)          108.6482         0.436356   
     60. A(C   3,C   4,N  19)          121.5291         0.406186   
     61. A(C   3,C   4,C   5)          129.8221         0.413304   
     62. A(N   6,C   5,H  30)          122.7383         0.347009   
     63. A(C   4,C   5,N   6)          106.8398         0.428026   
     64. A(C   4,C   5,H  30)          130.4217         0.359281   
     65. A(C   7,N   6,N  18)          124.4875         0.399375   
     66. A(C   5,N   6,N  18)          106.2250         0.405518   
     67. A(C   5,N   6,C   7)          129.2873         0.406352   
     68. A(C   8,C   7,C  10)          118.2547         0.417586   
     69. A(N   6,C   7,C  10)          119.9114         0.428213   
     70. A(N   6,C   7,C   8)          121.8339         0.390444   
     71. A(O   9,C   8,O  13)          119.1735         0.459415   
     72. A(C   7,C   8,O   9)          122.8414         0.441583   
     73. A(C   7,C   8,O  13)          117.9851         0.395769   
     74. A(C   7,C  10,H  31)          121.0764         0.362587   
     75. A(C   7,C  10,C  11)          122.7072         0.428853   
     76. A(C  11,C  10,H  31)          116.2164         0.340461   
     77. A(C  10,C  11,C  12)          118.5524         0.419049   
     78. A(C  12,C  11,C  17)          118.9343         0.434674   
     79. A(C  10,C  11,C  17)          122.5133         0.416157   
     80. A(C  11,C  12,O  13)          120.2202         0.421935   
     81. A(O  13,C  12,C  14)          117.9074         0.420135   
     82. A(C  11,C  12,C  14)          121.8724         0.435844   
     83. A(C   8,O  13,C  12)          122.2799         0.409062   
     84. A(C  15,C  14,H  32)          120.4744         0.353494   
     85. A(C  12,C  14,H  32)          120.5003         0.353731   
     86. A(C  12,C  14,C  15)          119.0253         0.433661   
     87. A(C  16,C  15,H  33)          120.0343         0.352473   
     88. A(C  14,C  15,H  33)          120.0415         0.353211   
     89. A(C  14,C  15,C  16)          119.9242         0.432390   
     90. A(C  15,C  16,H  34)          119.8459         0.352385   
     91. A(C  15,C  16,C  17)          120.2662         0.430872   
     92. A(C  17,C  16,H  34)          119.8879         0.351956   
     93. A(C  11,C  17,H  35)          120.8716         0.352511   
     94. A(C  11,C  17,C  16)          119.9776         0.430979   
     95. A(C  16,C  17,H  35)          119.1508         0.351999   
     96. A(N   6,N  18,N  19)          110.1181         0.412990   
     97. A(C   4,N  19,N  18)          108.1661         0.428412   
     98. A(C  21,C  20,C  25)          118.7520         0.427243   
     99. A(C   1,C  20,C  25)          119.3914         0.403605   
    100. A(C   1,C  20,C  21)          121.8496         0.403960   
    101. A(C  22,C  21,H  36)          118.0227         0.352415   
    102. A(C  20,C  21,H  36)          121.6491         0.351404   
    103. A(C  20,C  21,C  22)          120.3135         0.428929   
    104. A(C  21,C  22,C  23)          120.2186         0.431593   
    105. A(C  23,C  22,H  37)          119.8037         0.352982   
    106. A(C  21,C  22,H  37)          119.9767         0.351938   
    107. A(C  22,C  23,C  24)          119.9572         0.433077   
    108. A(C  24,C  23,H  38)          119.8680         0.353190   
    109. A(C  22,C  23,H  38)          120.1721         0.353095   
    110. A(C  23,C  24,C  25)          119.9404         0.433093   
    111. A(C  25,C  24,H  39)          119.8184         0.353178   
    112. A(C  23,C  24,H  39)          120.2400         0.353261   
    113. A(C  24,C  25,O  26)          115.9445         0.428209   
    114. A(C  20,C  25,O  26)          123.2604         0.425177   
    115. A(C  20,C  25,C  24)          120.7951         0.429910   
    116. A(C  25,O  26,H  40)          107.7133         0.362586   
    117. D(C   3,N   2,C   1,C  20)    178.8378         0.028479   
    118. D(H  27,N   2,C   1,C  20)      8.0263         0.028479   
    119. D(C   3,N   2,C   1,O   0)      0.8235         0.028479   
    120. D(H  27,N   2,C   1,O   0)   -169.9881         0.028479   
    121. D(C   4,C   3,N   2,C   1)    165.4593         0.017711   
    122. D(H  28,C   3,N   2,H  27)     96.8288         0.017711   
    123. D(H  28,C   3,N   2,C   1)    -74.4094         0.017711   
    124. D(C   4,C   3,N   2,H  27)    -23.3026         0.017711   
    125. D(H  29,C   3,N   2,C   1)     43.4650         0.017711   
    126. D(N  19,C   4,C   3,N   2)     40.9621         0.014431   
    127. D(N  19,C   4,C   3,H  28)    -77.6694         0.014431   
    128. D(C   5,C   4,C   3,H  29)    -17.9917         0.014431   
    129. D(C   5,C   4,C   3,H  28)    102.6258         0.014431   
    130. D(C   5,C   4,C   3,N   2)   -138.7427         0.014431   
    131. D(N   6,C   5,C   4,C   3)    179.7713         0.030469   
    132. D(N   6,C   5,C   4,N  19)      0.0368         0.030469   
    133. D(H  30,C   5,C   4,N  19)   -179.8439         0.030469   
    134. D(H  30,C   5,C   4,C   3)     -0.1094         0.030469   
    135. D(N  18,N   6,C   5,H  30)    179.5593         0.024867   
    136. D(C   7,N   6,C   5,H  30)     -0.3191         0.024867   
    137. D(N  18,N   6,C   5,C   4)     -0.3327         0.024867   
    138. D(C   7,N   6,C   5,C   4)    179.7888         0.024867   
    139. D(C  10,C   7,N   6,N  18)     -0.0505         0.020743   
    140. D(C   8,C   7,N   6,C   5)     -0.2539         0.020743   
    141. D(C  10,C   7,N   6,C   5)    179.8079         0.020743   
    142. D(C   8,C   7,N   6,N  18)    179.8877         0.020743   
    143. D(O  13,C   8,C   7,C  10)     -0.2470         0.012562   
    144. D(O  13,C   8,C   7,N   6)    179.8138         0.012562   
    145. D(O   9,C   8,C   7,C  10)    179.7422         0.012562   
    146. D(O   9,C   8,C   7,N   6)     -0.1970         0.012562   
    147. D(C  11,C  10,C   7,N   6)   -179.9634         0.036941   
    148. D(H  31,C  10,C   7,C   8)   -179.9186         0.036941   
    149. D(H  31,C  10,C   7,N   6)      0.0218         0.036941   
    150. D(C  11,C  10,C   7,C   8)      0.0963         0.036941   
    151. D(C  17,C  11,C  10,H  31)      0.0448         0.016864   
    152. D(C  17,C  11,C  10,C   7)   -179.9694         0.016864   
    153. D(C  12,C  11,C  10,H  31)   -179.9275         0.016864   
    154. D(C  12,C  11,C  10,C   7)      0.0583         0.016864   
    155. D(C  14,C  12,C  11,C  17)     -0.0094         0.027952   
    156. D(C  14,C  12,C  11,C  10)    179.9639         0.027952   
    157. D(O  13,C  12,C  11,C  17)    179.9647         0.027952   
    158. D(O  13,C  12,C  11,C  10)     -0.0620         0.027952   
    159. D(C   8,O  13,C  12,C  14)    179.8756         0.020760   
    160. D(C   8,O  13,C  12,C  11)     -0.0995         0.020760   
    161. D(C  12,O  13,C   8,O   9)   -179.7374         0.022128   
    162. D(C  12,O  13,C   8,C   7)      0.2522         0.022128   
    163. D(H  32,C  14,C  12,O  13)      0.0165         0.026564   
    164. D(H  32,C  14,C  12,C  11)    179.9911         0.026564   
    165. D(C  15,C  14,C  12,O  13)   -179.9685         0.026564   
    166. D(C  15,C  14,C  12,C  11)      0.0062         0.026564   
    167. D(H  33,C  15,C  14,H  32)      0.0037         0.026343   
    168. D(H  33,C  15,C  14,C  12)    179.9887         0.026343   
    169. D(C  16,C  15,C  14,H  32)   -179.9832         0.026343   
    170. D(C  16,C  15,C  14,C  12)      0.0018         0.026343   
    171. D(H  34,C  16,C  15,H  33)     -0.0011         0.025662   
    172. D(H  34,C  16,C  15,C  14)    179.9858         0.025662   
    173. D(C  17,C  16,C  15,H  33)   -179.9933         0.025662   
    174. D(C  17,C  16,C  15,C  14)     -0.0063         0.025662   
    175. D(C  11,C  17,C  16,C  15)      0.0031         0.025274   
    176. D(H  35,C  17,C  11,C  12)   -179.9842         0.025737   
    177. D(H  35,C  17,C  11,C  10)      0.0436         0.025737   
    178. D(C  16,C  17,C  11,C  12)      0.0046         0.025737   
    179. D(C  16,C  17,C  11,C  10)   -179.9675         0.025737   
    180. D(H  35,C  17,C  16,H  34)     -0.0000         0.025274   
    181. D(H  35,C  17,C  16,C  15)    179.9921         0.025274   
    182. D(C  11,C  17,C  16,H  34)   -179.9891         0.025274   
    183. D(N  19,N  18,N   6,C   7)   -179.5881         0.023194   
    184. D(N  19,N  18,N   6,C   5)      0.5260         0.023194   
    185. D(C   4,N  19,N  18,N   6)     -0.5095         0.035778   
    186. D(N  18,N  19,C   4,C   5)      0.2891         0.031267   
    187. D(N  18,N  19,C   4,C   3)   -179.4717         0.031267   
    188. D(C  25,C  20,C   1,N   2)   -161.2745         0.012737   
    189. D(C  25,C  20,C   1,O   0)     16.8095         0.012737   
    190. D(C  21,C  20,C   1,N   2)     19.6987         0.012737   
    191. D(C  21,C  20,C   1,O   0)   -162.2174         0.012737   
    192. D(H  36,C  21,C  20,C  25)   -177.0583         0.024360   
    193. D(H  36,C  21,C  20,C   1)      1.9746         0.024360   
    194. D(C  22,C  21,C  20,C  25)      1.5202         0.024360   
    195. D(C  22,C  21,C  20,C   1)   -179.4470         0.024360   
    196. D(H  37,C  22,C  21,H  36)     -1.3596         0.025247   
    197. D(H  37,C  22,C  21,C  20)   -179.9888         0.025247   
    198. D(C  23,C  22,C  21,H  36)    178.2712         0.025247   
    199. D(C  23,C  22,C  21,C  20)     -0.3579         0.025247   
    200. D(H  38,C  23,C  22,H  37)     -0.3554         0.026200   
    201. D(H  38,C  23,C  22,C  21)   -179.9869         0.026200   
    202. D(C  24,C  23,C  22,H  37)    179.0514         0.026200   
    203. D(C  24,C  23,C  22,C  21)     -0.5801         0.026200   
    204. D(H  39,C  24,C  23,H  38)      0.1223         0.026289   
    205. D(H  39,C  24,C  23,C  22)   -179.2863         0.026289   
    206. D(C  25,C  24,C  23,H  38)    179.7339         0.026289   
    207. D(C  25,C  24,C  23,C  22)      0.3253         0.026289   
    208. D(O  26,C  25,C  24,H  39)      0.5122         0.026211   
    209. D(O  26,C  25,C  24,C  23)   -179.1010         0.026211   
    210. D(C  20,C  25,C  24,H  39)   -179.5149         0.026211   
    211. D(C  20,C  25,C  24,C  23)      0.8719         0.026211   
    212. D(O  26,C  25,C  20,C  21)    178.1880         0.024106   
    213. D(O  26,C  25,C  20,C   1)     -0.8691         0.024106   
    214. D(C  24,C  25,C  20,C  21)     -1.7829         0.024106   
    215. D(C  24,C  25,C  20,C   1)    179.1600         0.024106   
    216. D(H  40,O  26,C  25,C  24)    172.2068         0.026326   
    217. D(H  40,O  26,C  25,C  20)     -7.7654         0.026326   
    -----------------------------------------------------------------

Number of atoms                         .... 41
Number of degrees of freedom            .... 217


         *************************************************************
         *                GEOMETRY OPTIMIZATION CYCLE   1            *
         *************************************************************
---------------------------------
CARTESIAN COORDINATES (ANGSTROEM)
---------------------------------
  O     -4.457625   -2.033494   -1.073294
  C     -4.069648   -1.244112   -0.214450
  N     -2.746214   -1.108659    0.126578
  C     -1.721148   -1.888644   -0.530491
  C     -0.392965   -1.299848   -0.227726
  C      0.692380   -1.106677   -1.049137
  N      1.683452   -0.513605   -0.274446
  C      2.989836   -0.115941   -0.642479
  C      3.509683   -0.306630   -2.028473
  O      2.845409   -0.817313   -2.923239
  C      3.803755    0.452681    0.273035
  C      5.154674    0.884101   -0.038560
  C      5.625947    0.705215   -1.329372
  O      4.807614    0.118225   -2.304115
  C      6.909288    1.093991   -1.703931
  C      7.742854    1.679385   -0.753202
  C      7.285470    1.867714    0.552985
  C      5.993006    1.471040    0.911410
  N      1.149469   -0.365995    0.986539
  N     -0.084701   -0.840349    1.016297
  C     -5.068065   -0.423284    0.527958
  C     -4.698385    0.730393    1.236462
  C     -5.660384    1.470510    1.931766
  C     -6.996049    1.071504    1.920022
  C     -7.377628   -0.061417    1.203763
  C     -6.421822   -0.797806    0.505652
  O     -6.889834   -1.884999   -0.185897
  H     -2.459867   -0.568229    0.932237
  H     -1.780425   -2.914167   -0.151634
  H     -1.913765   -1.904867   -1.608554
  H      0.828757   -1.337803   -2.093850
  H      3.472314    0.612282    1.297214
  H      7.255868    0.943057   -2.722115
  H      8.748397    1.989086   -1.027718
  H      7.937386    2.324647    1.294254
  H      5.655571    1.626159    1.933616
  H     -3.673871    1.089123    1.246053
  H     -5.367821    2.363906    2.478936
  H     -7.743163    1.647436    2.460530
  H     -8.419548   -0.370046    1.181973
  H     -6.148202   -2.236571   -0.728500

----------------------------
CARTESIAN COORDINATES (A.U.)
----------------------------
  NO LB      ZA    FRAG     MASS         X           Y           Z
   0 O     8.0000    0    15.999   -8.423690   -3.842747   -2.028232
   1 C     6.0000    0    12.011   -7.690520   -2.351031   -0.405251
   2 N     7.0000    0    14.007   -5.189593   -2.095062    0.239197
   3 C     6.0000    0    12.011   -3.252498   -3.569019   -1.002482
   4 C     6.0000    0    12.011   -0.742596   -2.456358   -0.430341
   5 C     6.0000    0    12.011    1.308408   -2.091316   -1.982582
   6 N     7.0000    0    14.007    3.181263   -0.970573   -0.518628
   7 C     6.0000    0    12.011    5.649971   -0.219097   -1.214110
   8 C     6.0000    0    12.011    6.632340   -0.579448   -3.833258
   9 O     8.0000    0    15.999    5.377044   -1.544497   -5.524121
  10 C     6.0000    0    12.011    7.188055    0.855443    0.515961
  11 C     6.0000    0    12.011    9.740923    1.670710   -0.072868
  12 C     6.0000    0    12.011   10.631498    1.332663   -2.512149
  13 O     8.0000    0    15.999    9.085073    0.223413   -4.354146
  14 C     6.0000    0    12.011   13.056663    2.067343   -3.219963
  15 C     6.0000    0    12.011   14.631874    3.173578   -1.423346
  16 C     6.0000    0    12.011   13.767543    3.529468    1.044991
  17 C     6.0000    0    12.011   11.325139    2.779863    1.722315
  18 N     7.0000    0    14.007    2.172182   -0.691630    1.864289
  19 N     7.0000    0    14.007   -0.160063   -1.588029    1.920523
  20 C     6.0000    0    12.011   -9.577255   -0.799890    0.997695
  21 C     6.0000    0    12.011   -8.878661    1.380243    2.336574
  22 C     6.0000    0    12.011  -10.696575    2.778861    3.650508
  23 C     6.0000    0    12.011  -13.220617    2.024849    3.628316
  24 C     6.0000    0    12.011  -13.941697   -0.116061    2.274782
  25 C     6.0000    0    12.011  -12.135484   -1.507634    0.955545
  26 O     8.0000    0    15.999  -13.019899   -3.562131   -0.351294
  27 H     1.0000    0     1.008   -4.648475   -1.073796    1.761673
  28 H     1.0000    0     1.008   -3.364515   -5.506977   -0.286547
  29 H     1.0000    0     1.008   -3.616491   -3.599677   -3.039727
  30 H     1.0000    0     1.008    1.566123   -2.528081   -3.956804
  31 H     1.0000    0     1.008    6.561723    1.157046    2.451379
  32 H     1.0000    0     1.008   13.711604    1.782119   -5.144051
  33 H     1.0000    0     1.008   16.532074    3.758828   -1.942105
  34 H     1.0000    0     1.008   14.999485    4.392945    2.445785
  35 H     1.0000    0     1.008   10.687480    3.072996    3.654005
  36 H     1.0000    0     1.008   -6.942610    2.058145    2.354699
  37 H     1.0000    0     1.008  -10.143711    4.467135    4.684510
  38 H     1.0000    0     1.008  -14.632458    3.113202    4.649728
  39 H     1.0000    0     1.008  -15.910639   -0.699286    2.233606
  40 H     1.0000    0     1.008  -11.618418   -4.226506   -1.376665

--------------------------------
INTERNAL COORDINATES (ANGSTROEM)
--------------------------------
 O      0   0   0     0.000000000000     0.00000000     0.00000000
 C      1   0   0     1.229334793045     0.00000000     0.00000000
 N      2   1   0     1.373361812121   122.74744929     0.00000000
 C      3   2   1     1.445986328491   121.13753892     0.82345086
 C      4   3   2     1.484053422806   109.13120368   165.45927093
 C      5   4   3     1.374774330791   129.82208937   221.25728797
 N      6   5   4     1.390720801727   106.83984124   179.77129518
 C      7   6   5     1.414292661430   129.28734654   179.78882509
 C      8   7   6     1.492508412180   121.83386862   359.74609145
 O      9   8   7     1.225831476394   122.84139959   359.80302720
 C      8   7   6     1.350541506489   119.91140699   179.80790926
 C     11   8   7     1.451963497347   122.70720006   180.03663844
 C     12  11   8     1.385746226401   118.55241862     0.05833944
 O      9   8   7     1.393235181238   117.98507505   179.81384736
 C     13  12  11     1.392267086549   121.87239177   179.96389898
 C     15  13  12     1.393342478140   119.02527693     0.00000000
 C     16  15  13     1.396708478874   119.92421584     0.00000000
 C     12  11   8     1.396330861898   122.51328747   180.03060670
 N      7   6   5     1.377320342592   106.22501751   359.66730217
 N     19   7   6     1.322525556637   110.11810813     0.52601041
 C      2   1   3     1.490558849974   119.35213841   182.01388588
 C     21   2   1     1.403428574735   121.84960814   197.78264991
 C     22  21   2     1.398807218724   120.31345527   180.55299622
 C     23  22  21     1.394039637396   120.21860025   359.64207579
 C     24  23  22     1.393606324835   119.95722775   359.41988426
 C     25  24  23     1.393984570337   119.94041988     0.32527165
 O     26  25  24     1.370862635074   115.94448531   180.89895026
 H      3   2   1     1.011507256527   121.55223071   190.01193845
 H      4   3   2     1.094871857568   108.03683445   285.59064400
 H      4   3   2     1.095255743345   109.30482695    43.46501093
 H      6   5   4     1.078630273415   130.42170845   359.89058498
 H     11   8   7     1.088240650228   121.07637129     0.00000000
 H     15  13  12     1.086092334954   120.50028970   179.99114052
 H     16  15  13     1.087377247482   120.04146197   179.98869924
 H     17  16  15     1.087777830406   119.84591820   179.98583150
 H     18  12  11     1.087579853016   120.87161257     0.04360918
 H     22  21   2     1.085545208974   121.64912465     1.97456137
 H     23  22  21     1.087725036290   119.97668356   180.01122718
 H     24  23  22     1.087209923701   120.17212621   180.01306469
 H     25  24  23     1.086886922934   120.23999838   180.71371258
 H     27  26  25     0.983889475886   107.71329482   172.20678855

---------------------------
INTERNAL COORDINATES (A.U.)
---------------------------
 O      0   0   0     0.000000000000     0.00000000     0.00000000
 C      1   0   0     2.323106085755     0.00000000     0.00000000
 N      2   1   0     2.595277707694   122.74744929     0.00000000
 C      3   2   1     2.732518154242   121.13753892     0.82345086
 C      4   3   2     2.804454537212   109.13120368   165.45927093
 C      5   4   3     2.597946981139   129.82208937   221.25728797
 N      6   5   4     2.628081444012   106.83984124   179.77129518
 C      7   6   5     2.672625803316   129.28734654   179.78882509
 C      8   7   6     2.820432151594   121.83386862   359.74609145
 O      9   8   7     2.316485776725   122.84139959   359.80302720
 C      8   7   6     2.552153579758   119.91140699   179.80790926
 C     11   8   7     2.743813366437   122.70720006   180.03663844
 C     12  11   8     2.618680859014   118.55241862     0.05833944
 O      9   8   7     2.632832932683   117.98507505   179.81384736
 C     13  12  11     2.631003498850   121.87239177   179.96389898
 C     15  13  12     2.633035694444   119.02527693     0.00000000
 C     16  15  13     2.639396513997   119.92421584     0.00000000
 C     12  11   8     2.638682921329   122.51328747   180.03060670
 N      7   6   5     2.602758246177   106.22501751   359.66730217
 N     19   7   6     2.499211107155   110.11810813     0.52601041
 C      2   1   3     2.816748012944   119.35213841   182.01388588
 C     21   2   1     2.652095654768   121.84960814   197.78264991
 C     22  21   2     2.643362557541   120.31345527   180.55299622
 C     23  22  21     2.634353134509   120.21860025   359.64207579
 C     24  23  22     2.633534292438   119.95722775   359.41988426
 C     25  24  23     2.634249072848   119.94041988     0.32527165
 O     26  25  24     2.590554947516   115.94448531   180.89895026
 H      3   2   1     1.911471697311   121.55223071   190.01193845
 H      4   3   2     2.069007962541   108.03683445   285.59064400
 H      4   3   2     2.069733401527   109.30482695    43.46501093
 H      6   5   4     2.038315816510   130.42170845   359.89058498
 H     11   8   7     2.056476796731   121.07637129     0.00000000
 H     15  13  12     2.052417069214   120.50028970   179.99114052
 H     16  15  13     2.054845201999   120.04146197   179.98869924
 H     17  16  15     2.055602194019   119.84591820   179.98583150
 H     18  12  11     2.055228070970   120.87161257     0.04360918
 H     22  21   2     2.051383150951   121.64912465     1.97456137
 H     23  22  21     2.055502427597   119.97668356   180.01122718
 H     24  23  22     2.054529005877   120.17212621   180.01306469
 H     25  24  23     2.053918622885   120.23999838   180.71371258
 H     27  26  25     1.859281655471   107.71329482   172.20678855

---------------------
BASIS SET INFORMATION
---------------------
There are 4 groups of distinct atoms

 Group   1 Type O   : 7s4p1d contracted to 3s2p1d pattern {511/31/1}
 Group   2 Type C   : 7s4p1d contracted to 3s2p1d pattern {511/31/1}
 Group   3 Type N   : 7s4p1d contracted to 3s2p1d pattern {511/31/1}
 Group   4 Type H   : 4s1p contracted to 2s1p pattern {31/1}

Atom   0O    basis set group =>   1
Atom   1C    basis set group =>   2
Atom   2N    basis set group =>   3
Atom   3C    basis set group =>   2
Atom   4C    basis set group =>   2
Atom   5C    basis set group =>   2
Atom   6N    basis set group =>   3
Atom   7C    basis set group =>   2
Atom   8C    basis set group =>   2
Atom   9O    basis set group =>   1
Atom  10C    basis set group =>   2
Atom  11C    basis set group =>   2
Atom  12C    basis set group =>   2
Atom  13O    basis set group =>   1
Atom  14C    basis set group =>   2
Atom  15C    basis set group =>   2
Atom  16C    basis set group =>   2
Atom  17C    basis set group =>   2
Atom  18N    basis set group =>   3
Atom  19N    basis set group =>   3
Atom  20C    basis set group =>   2
Atom  21C    basis set group =>   2
Atom  22C    basis set group =>   2
Atom  23C    basis set group =>   2
Atom  24C    basis set group =>   2
Atom  25C    basis set group =>   2
Atom  26O    basis set group =>   1
Atom  27H    basis set group =>   4
Atom  28H    basis set group =>   4
Atom  29H    basis set group =>   4
Atom  30H    basis set group =>   4
Atom  31H    basis set group =>   4
Atom  32H    basis set group =>   4
Atom  33H    basis set group =>   4
Atom  34H    basis set group =>   4
Atom  35H    basis set group =>   4
Atom  36H    basis set group =>   4
Atom  37H    basis set group =>   4
Atom  38H    basis set group =>   4
Atom  39H    basis set group =>   4
Atom  40H    basis set group =>   4
---------------------------------
AUXILIARY/J BASIS SET INFORMATION
---------------------------------
There are 4 groups of distinct atoms

 Group   1 Type O   : 12s5p4d2f1g contracted to 6s4p3d1f1g pattern {711111/2111/211/2/1}
 Group   2 Type C   : 12s5p4d2f1g contracted to 6s4p3d1f1g pattern {711111/2111/211/2/1}
 Group   3 Type N   : 12s5p4d2f1g contracted to 6s4p3d1f1g pattern {711111/2111/211/2/1}
 Group   4 Type H   : 5s2p1d contracted to 3s1p1d pattern {311/2/1}

Atom   0O    basis set group =>   1
Atom   1C    basis set group =>   2
Atom   2N    basis set group =>   3
Atom   3C    basis set group =>   2
Atom   4C    basis set group =>   2
Atom   5C    basis set group =>   2
Atom   6N    basis set group =>   3
Atom   7C    basis set group =>   2
Atom   8C    basis set group =>   2
Atom   9O    basis set group =>   1
Atom  10C    basis set group =>   2
Atom  11C    basis set group =>   2
Atom  12C    basis set group =>   2
Atom  13O    basis set group =>   1
Atom  14C    basis set group =>   2
Atom  15C    basis set group =>   2
Atom  16C    basis set group =>   2
Atom  17C    basis set group =>   2
Atom  18N    basis set group =>   3
Atom  19N    basis set group =>   3
Atom  20C    basis set group =>   2
Atom  21C    basis set group =>   2
Atom  22C    basis set group =>   2
Atom  23C    basis set group =>   2
Atom  24C    basis set group =>   2
Atom  25C    basis set group =>   2
Atom  26O    basis set group =>   1
Atom  27H    basis set group =>   4
Atom  28H    basis set group =>   4
Atom  29H    basis set group =>   4
Atom  30H    basis set group =>   4
Atom  31H    basis set group =>   4
Atom  32H    basis set group =>   4
Atom  33H    basis set group =>   4
Atom  34H    basis set group =>   4
Atom  35H    basis set group =>   4
Atom  36H    basis set group =>   4
Atom  37H    basis set group =>   4
Atom  38H    basis set group =>   4
Atom  39H    basis set group =>   4
Atom  40H    basis set group =>   4


           ************************************************************
           *        Program running with 8 parallel MPI-processes     *
           *              working on a common directory               *
           ************************************************************
------------------------------------------------------------------------------
                             ORCA STARTUP CALCULATIONS
                           -- RI-GTO INTEGRALS CHOSEN --
------------------------------------------------------------------------------
------------------------------------------------------------------------------
                   ___                                                        
                  /   \      - P O W E R E D   B Y -                         
                 /     \                                                     
                 |  |  |   _    _      __       _____    __    __             
                 |  |  |  | |  | |    /  \     |  _  \  |  |  /  |          
                  \  \/   | |  | |   /    \    | | | |  |  | /  /          
                 / \  \   | |__| |  /  /\  \   | |_| |  |  |/  /          
                |  |  |   |  __  | /  /__\  \  |    /   |      \           
                |  |  |   | |  | | |   __   |  |    \   |  |\   \          
                \     /   | |  | | |  |  |  |  | |\  \  |  | \   \       
                 \___/    |_|  |_| |__|  |__|  |_| \__\ |__|  \__/        
                                                                              
                      - O R C A' S   B I G   F R I E N D -                    
                                      &                                       
                       - I N T E G R A L  F E E D E R -                       
                                                                              
 v1 FN, 2020, v2 2021, v3 2022-2024                                           
------------------------------------------------------------------------------


----------------------
SHARK INTEGRAL PACKAGE
----------------------

Number of atoms                             ...     41
Number of basis functions                   ...    448
Number of shells                            ...    204
Maximum angular momentum                    ...      2
Integral batch strategy                     ... SHARK/LIBINT Hybrid
RI-J (if used) integral strategy            ... SPLIT-RIJ (Revised 2003 algorithm where possible)
Printlevel                                  ...      1
Contraction scheme used                     ... SEGMENTED contraction
Prescreening option                         ... SCHWARTZ
   Thresh                                   ... 2.500e-11
   Tcut                                     ... 2.500e-12
   Tpresel                                  ... 2.500e-12 
Coulomb Range Separation                    ... NOT USED
Exchange Range Separation                   ... NOT USED
Multipole approximations                    ... NOT USED
Finite Nucleus Model                        ... NOT USED
CABS basis                                  ... NOT available
Auxiliary Coulomb fitting basis             ... AVAILABLE
   # of basis functions in Aux-J            ...   1477
   # of shells in Aux-J                     ...    475
   Maximum angular momentum in Aux-J        ...      4
Auxiliary J/K fitting basis                 ... NOT available
Auxiliary Correlation fitting basis         ... NOT available
Auxiliary 'external' fitting basis          ... NOT available

Checking pre-screening integrals            ... done (  0.0 sec) Dimension = 204
   => SHARK Basis and OBASIS are compatible. Storing Pre-screening
Shell pair information
Shell pair cut-off parameter TPreSel        ...   2.5e-12
Total number of shell pairs                 ...     20910
Shell pairs after pre-screening             ...     11435
Total number of primitive shell pairs       ...     78208
Primitive shell pairs kept                  ...     27436
          la=0 lb=0:   3314 shell pairs
          la=1 lb=0:   4188 shell pairs
          la=1 lb=1:   1378 shell pairs
          la=2 lb=0:   1449 shell pairs
          la=2 lb=1:    942 shell pairs
          la=2 lb=2:    164 shell pairs

Checking whether 4 symmetric matrices of dimension 448 fit in memory
:Max Core in MB      =   3000.00
 MB in use           =     14.87
 MB left             =   2985.13
 MB needed           =      3.07
 Data fit in memory  = YES
Calculating RI/J V-Matrix + Cholesky decomp.... done (  0.1 sec)
Calculating Nuclear repulsion               ... done (  0.0 sec) ENN=   2146.574290715906 Eh

Diagonalization of the overlap matrix:
Smallest eigenvalue                        ... 2.376e-04
Time for diagonalization                   ...    0.011 sec
Threshold for overlap eigenvalues          ... 1.000e-07
Number of eigenvalues below threshold      ... 0
Time for construction of square roots      ...    0.009 sec
Total time needed                          ...    0.022 sec

-------------------
DFT GRID GENERATION
-------------------

General Integration Accuracy     IntAcc      ... 4.388
Radial Grid Type                 RadialGrid  ... OptM3 with GC (2021)
Angular Grid (max. ang.)         AngularGrid ... 4 (Lebedev-302)
Angular grid pruning method      GridPruning ... 4 (adaptive)
Weight generation scheme         WeightScheme... mBecke (2022)
Basis function cutoff            BFCut       ... 1.0000e-11
Integration weight cutoff        WCut        ... 1.0000e-14
Partially contracted basis set               ... off
Rotationally invariant grid construction     ... off
Angular grids for H and He will be reduced by one unit

Total number of grid points                  ...   206886
Total number of batches                      ...     3254
Average number of points per batch           ...       63
Average number of grid points per atom       ...     5046

--------------------
COSX GRID GENERATION
--------------------

GRIDX 1
-------
General Integration Accuracy     IntAcc      ... 3.816
Radial Grid Type                 RadialGrid  ... OptM3 with GC (2021)
Angular Grid (max. ang.)         AngularGrid ... 1 (Lebedev-50)
Angular grid pruning method      GridPruning ... 4 (adaptive)
Weight generation scheme         WeightScheme... mBecke (2022)
Basis function cutoff            BFCut       ... 1.0000e-11
Integration weight cutoff        WCut        ... 1.0000e-14
Partially contracted basis set               ... on
Rotationally invariant grid construction     ... off
Angular grids for H and He will be reduced by one unit

Total number of grid points                  ...    26215
Total number of batches                      ...      226
Average number of points per batch           ...      115
Average number of grid points per atom       ...      639
UseSFitting                                  ... on

GRIDX 2
-------
General Integration Accuracy     IntAcc      ... 4.020
Radial Grid Type                 RadialGrid  ... OptM3 with GC (2021)
Angular Grid (max. ang.)         AngularGrid ... 2 (Lebedev-110)
Angular grid pruning method      GridPruning ... 4 (adaptive)
Weight generation scheme         WeightScheme... mBecke (2022)
Basis function cutoff            BFCut       ... 1.0000e-11
Integration weight cutoff        WCut        ... 1.0000e-14
Partially contracted basis set               ... on
Rotationally invariant grid construction     ... off
Angular grids for H and He will be reduced by one unit

Total number of grid points                  ...    58412
Total number of batches                      ...      477
Average number of points per batch           ...      122
Average number of grid points per atom       ...     1425
UseSFitting                                  ... on

GRIDX 3
-------
General Integration Accuracy     IntAcc      ... 4.338
Radial Grid Type                 RadialGrid  ... OptM3 with GC (2021)
Angular Grid (max. ang.)         AngularGrid ... 3 (Lebedev-194)
Angular grid pruning method      GridPruning ... 4 (adaptive)
Weight generation scheme         WeightScheme... mBecke (2022)
Basis function cutoff            BFCut       ... 1.0000e-11
Integration weight cutoff        WCut        ... 1.0000e-14
Partially contracted basis set               ... on
Rotationally invariant grid construction     ... off
Angular grids for H and He will be reduced by one unit

Total number of grid points                  ...   128169
Total number of batches                      ...     1022
Average number of points per batch           ...      125
Average number of grid points per atom       ...     3126
UseSFitting                                  ... on
Grids setup in   1.6 sec
Initializing property integral containers    ... done (  0.0 sec)

SHARK setup successfully completed in   1.8 seconds

Maximum memory used throughout the entire STARTUP-calculation: 52.3 MB


           ************************************************************
           *        Program running with 8 parallel MPI-processes     *
           *              working on a common directory               *
           ************************************************************
-------------------------------------------------------------------------------
                                 ORCA GUESS
                   Start orbitals & Density for SCF / CASSCF
-------------------------------------------------------------------------------

------------
SCF SETTINGS
------------
Hamiltonian:
 Density Functional     Method          .... DFT(GTOs)
 Exchange Functional    Exchange        .... B88
   X-Alpha parameter    XAlpha          ....  0.666667
   Becke's b parameter  XBeta           ....  0.004200
 Correlation Functional Correlation     .... LYP
 LDA part of GGA corr.  LDAOpt          .... VWN-5
 Gradients option       PostSCFGGA      .... off
 Hybrid DFT is turned on
   Fraction HF Exchange ScalHFX         ....  0.200000
   Scaling of DF-GGA-X  ScalDFX         ....  0.720000
   Scaling of DF-GGA-C  ScalDFC         ....  0.810000
   Scaling of DF-LDA-C  ScalLDAC        ....  1.000000
   Perturbative correction              ....  0.000000
   NL short-range parameter             ....  4.800000
 RI-approximation to the Coulomb term is turned on
   Number of AuxJ basis functions       .... 1477
   RIJ-COSX (HFX calculated with COS-X)).... on


General Settings:
 Integral files         IntName         .... CMR_GOLD_079_correct_opt_pal8
 Hartree-Fock type      HFTyp           .... RHF
 Total Charge           Charge          ....    0
 Multiplicity           Mult            ....    1
 Number of Electrons    NEL             ....  188
 Basis Dimension        Dim             ....  448
 Nuclear Repulsion      ENuc            ....   2146.5742907159 Eh

Convergence Acceleration:
 AO-DIIS                CNVDIIS         .... on
   Start iteration      DIISMaxIt       ....    12
   Startup error        DIISStart       ....  0.200000
   # of expansion vecs  DIISMaxEq       ....     5
   Bias factor          DIISBfac        ....   1.050
   Max. coefficient     DIISMaxC        ....  10.000
 MO-DIIS                CNVKDIIS        .... off
 Trust-Rad. Augm. Hess. CNVTRAH         .... auto
   Auto Start mean grad. ratio tolernc. ....  1.125000
   Auto Start start iteration           ....    50
   Auto Start num. interpolation iter.  ....    10
   Max. Number of Micro iterations      ....    24
   Max. Number of Macro iterations      .... Maxiter - #DIIS iter
   Number of Davidson start vectors     ....     2
   Converg. threshold    (grad. norm)   ....   1.000e-05
   Grad. Scal. Fac. for Micro threshold ....   0.100
   Minimum threshold for Micro iter.    ....   1.000e-02
   NR start threshold (gradient norm)   ....   1.000e-04
   Initial trust radius                 ....   0.400
   Minimum AH scaling param. (alpha)    ....   1.000
   Maximum AH scaling param. (alpha)    .... 1000.000
   Quad. conv. algorithm                .... NR
   White noise on init. David. guess    .... on
   Maximum white noise                  ....   0.010
   Pseudo random numbers                .... off
   Inactive MOs                         .... canonical
   Orbital update algorithm             .... Taylor
   Preconditioner                       .... Diag
   Full preconditioner red. dimension   ....   250
 SOSCF                 CNVSOSCF           .... on
   Start iteration     SOSCFMaxIt         ....   150
   Startup grad/error  SOSCFStart         ....  0.003300
   Hessian update      SOSCFHessUp        .... L-BFGS
   Autom. constraints  SOSCFAutoConstrain .... off
 Level Shifting         CNVShift        .... on
   Level shift para.    LevelShift      ....    0.2500
   Turn off err/grad.   ShiftErr        ....    0.0010
 Zerner damping         CNVZerner       .... off
 Static damping         CNVDamp         .... on
   Fraction old density DampFac         ....    0.7000
   Max. Damping (<1)    DampMax         ....    0.9800
   Min. Damping (>=0)   DampMin         ....    0.0000
   Turn off err/grad.   DampErr         ....    0.1000

SCF Procedure:
 Maximum # iterations   MaxIter         ....   125
 SCF integral mode      SCFMode         .... Direct
   Integral package                     .... SHARK and LIBINT hybrid scheme
 Reset frequency        DirectResetFreq ....    20
 Integral Threshold     Thresh          ....  2.500e-11 Eh
 Primitive CutOff       TCut            ....  2.500e-12 Eh

Convergence Tolerance:
 Convergence Check Mode ConvCheckMode   .... Total+1el-Energy
 Convergence forced     ConvForced      .... 0
 Energy Change          TolE            ....  1.000e-08 Eh
 1-El. energy change                    ....  1.000e-05 Eh
 Orbital Gradient       TolG            ....  1.000e-05
 Orbital Rotation angle TolX            ....  1.000e-05
 DIIS Error             TolErr          ....  5.000e-07

------------------------------
INITIAL GUESS: MODEL POTENTIAL
------------------------------
Loading Hartree-Fock densities                     ... done
Calculating cut-offs                               ... done
Initializing the effective Hamiltonian             ... done
Setting up the integral package (SHARK)            ... done
Starting the Coulomb interaction                   ... done (   0.1 sec)
Making the grid                                    ... done (   0.3 sec)
Mapping shells                                     ... done
Starting the XC term evaluation                    ... done (   0.1 sec)
  promolecular density results
     # of electrons  =    187.989517099
     EX              =   -160.971669749
     EC              =     -6.519592026
     EX+EC           =   -167.491261775
Transforming the Hamiltonian                       ... done (   0.0 sec)
Diagonalizing the Hamiltonian                      ... done (   0.0 sec)
Back transforming the eigenvectors                 ... done (   0.0 sec)
Now organizing SCF variables                       ... done
                      ------------------
                      INITIAL GUESS DONE (   0.5 sec)
                      ------------------
             **** ENERGY FILE WAS UPDATED (CMR_GOLD_079_correct_opt_pal8.en.tmp) ****
Finished Guess after   0.6 sec
Maximum memory used throughout the entire GUESS-calculation: 20.4 MB


           ************************************************************
           *        Program running with 8 parallel MPI-processes     *
           *              working on a common directory               *
           ************************************************************

-------------------------------------------------------------------------------------------
                                      ORCA LEAN-SCF
                              memory conserving SCF solver
-------------------------------------------------------------------------------------------

--------------------
CPCM SOLVATION MODEL
--------------------
CPCM parameters:
  Epsilon                                         ...      80.1510
  Refrac                                          ...       1.3328
  Rsolv                                           ...       1.3000
  Surface type                                    ... GAUSSIAN VDW
  Discretization scheme                           ... Constant charge density
    Threshold for H atoms                         ...       5.0000 (charges/Ang^2)
    Threshold for non-H atoms                     ...       5.0000 (charges/Ang^2)
  Epsilon function type                           ...         CPCM
Solvent:                                          ... WATER
Radii:
  Scheme                                          ... Element-dependent radii
  Radius for O  used is    3.4469 Bohr (=   1.8240 Ang.)
  Radius for C  used is    3.8550 Bohr (=   2.0400 Ang.)
  Radius for N  used is    3.5149 Bohr (=   1.8600 Ang.)
  Radius for H  used is    2.4944 Bohr (=   1.3200 Ang.)
Calculating surface                               ...        done! (  0.0s)
Cavity surface points                             ...         3693
Cavity Volume                                     ...    2710.9394
Cavity Surface-area                               ...    1380.9199
Calculating surface distance matrix               ...        done! (  0.1s)
Performing Cholesky decomposition & store         ...        done! (  0.3s)
Overall time for CPCM initialization              ...                 0.3s

----------------------------------------D-I-I-S--------------------------------------------
Iteration    Energy (Eh)           Delta-E    RMSDP     MaxDP     DIISErr   Damp  Time(sec)
-------------------------------------------------------------------------------------------
               ***  Starting incremental Fock matrix formation  ***
    1    -1250.2052637719507402     0.00e+00  6.80e-03  9.92e-02  2.64e-01  0.700   2.5
    2    -1250.4651138101799006    -2.60e-01  4.45e-03  5.32e-02  1.01e-01  0.700   1.5
                               ***Turning on AO-DIIS***
    3    -1250.5632571846776955    -9.81e-02  1.99e-03  2.29e-02  3.13e-02  0.700   1.4
    4    -1250.6251484308104409    -6.19e-02  3.64e-03  3.44e-02  1.64e-02  0.000   1.4
    5    -1250.7614601774239418    -1.36e-01  5.72e-04  8.67e-03  5.52e-03  0.000   1.3
                              *** Initializing SOSCF ***
---------------------------------------S-O-S-C-F--------------------------------------
Iteration    Energy (Eh)           Delta-E    RMSDP     MaxDP     MaxGrad    Time(sec)
--------------------------------------------------------------------------------------
    6    -1250.7622673757291523    -8.07e-04  1.98e-04  2.23e-03  1.86e-03     1.3
               *** Restarting incremental Fock matrix formation ***
    7    -1250.7622762363030233    -8.86e-06  1.91e-04  4.01e-03  5.00e-04     2.4
    8    -1250.7622368329748497     3.94e-05  1.14e-04  2.79e-03  1.06e-03     1.8
    9    -1250.7622935858803430    -5.68e-05  2.39e-05  3.88e-04  5.46e-05     1.6
   10    -1250.7622933115026171     2.74e-07  1.31e-05  2.18e-04  6.92e-05     1.5
   11    -1250.7622939795796810    -6.68e-07  5.41e-06  7.14e-05  1.32e-05     1.5
   12    -1250.7622939977472925    -1.82e-08  3.14e-06  3.97e-05  1.51e-05     1.4
   13    -1250.7622940035093961    -5.76e-09  1.37e-06  2.01e-05  3.12e-06     1.2
                 **** Energy Check signals convergence ****

               *****************************************************
               *                     SUCCESS                       *
               *           SCF CONVERGED AFTER  13 CYCLES          *
               *****************************************************

Recomputing exchange energy using gridx3       ... done (    3.475 sec)
Old exchange energy                            :    -32.506463039 Eh
New exchange energy                            :    -32.506492935 Eh
Exchange energy change after final integration :     -0.000029896 Eh
Total energy after final integration           :  -1250.762323884 Eh
             **** ENERGY FILE WAS UPDATED (CMR_GOLD_079_correct_opt_pal8.en.tmp) ****

----------------
TOTAL SCF ENERGY
----------------

Total Energy       :      -1250.76232388402582 Eh          -34034.97314 eV

Components:
Nuclear Repulsion  :       2146.57429071590559 Eh           58411.25602 eV
Electronic Energy  :      -3397.30850596544860 Eh          -92445.46428 eV
One Electron Energy:      -5965.75064439392827 Eh         -162336.32805 eV
Two Electron Energy:       2568.44213842847967 Eh           69890.86377 eV
CPCM Dielectric    :         -0.02807873855365 Eh              -0.76406 eV

Virial components:
Potential Energy   :      -2489.94961546724971 Eh          -67754.97363 eV
Kinetic Energy     :       1239.18729158322412 Eh           33720.00050 eV
Virial Ratio       :          2.00934082553898

DFT components:
N(Alpha)           :       93.999959921009 electrons
N(Beta)            :       93.999959921009 electrons
N(Total)           :      187.999919842019 electrons
E(X)               :     -129.326735689621 Eh       
E(C)               :       -7.661551535187 Eh       
E(XC)              :     -136.988287224808 Eh       

CPCM Solvation Model Properties:
Surface-charge          :         -0.02560786813783
Corrected charge        :          0.00000000000000
Outlying charge corr.   :          0.00003087905736 Eh               0.00084 eV
Free-energy (cav+disp)  :  This term is not implemented in the current solvation scheme

---------------
SCF CONVERGENCE
---------------

  Last Energy change         ...    5.7621e-09  Tolerance :   1.0000e-08
  Last MAX-Density change    ...    2.0065e-05  Tolerance :   1.0000e-07
  Last RMS-Density change    ...    1.3749e-06  Tolerance :   5.0000e-09
  Last DIIS Error            ...    1.8601e-03  Tolerance :   5.0000e-07
  Last Orbital Gradient      ...    3.1228e-06  Tolerance :   1.0000e-05
  Last Orbital Rotation      ...    1.0202e-05  Tolerance :   1.0000e-05


----------------
ORBITAL ENERGIES
----------------

  NO   OCC          E(Eh)            E(eV) 
   0   2.0000     -19.218342      -522.9577 
   1   2.0000     -19.146739      -521.0093 
   2   2.0000     -19.142522      -520.8945 
   3   2.0000     -19.118226      -520.2334 
   4   2.0000     -14.443570      -393.0295 
   5   2.0000     -14.392253      -391.6331 
   6   2.0000     -14.365402      -390.9025 
   7   2.0000     -14.355614      -390.6361 
   8   2.0000     -10.351624      -281.6820 
   9   2.0000     -10.299612      -280.2667 
  10   2.0000     -10.274607      -279.5863 
  11   2.0000     -10.272840      -279.5382 
  12   2.0000     -10.254138      -279.0293 
  13   2.0000     -10.236311      -278.5442 
  14   2.0000     -10.233742      -278.4743 
  15   2.0000     -10.231365      -278.4096 
  16   2.0000     -10.224257      -278.2162 
  17   2.0000     -10.219785      -278.0945 
  18   2.0000     -10.208191      -277.7790 
  19   2.0000     -10.206781      -277.7406 
  20   2.0000     -10.205209      -277.6978 
  21   2.0000     -10.199773      -277.5499 
  22   2.0000     -10.199430      -277.5406 
  23   2.0000     -10.198628      -277.5188 
  24   2.0000     -10.194807      -277.4148 
  25   2.0000     -10.185556      -277.1631 
  26   2.0000     -10.185148      -277.1520 
  27   2.0000      -1.114218       -30.3194 
  28   2.0000      -1.091975       -29.7141 
  29   2.0000      -1.051043       -28.6003 
  30   2.0000      -1.032781       -28.1034 
  31   2.0000      -1.023971       -27.8637 
  32   2.0000      -0.939698       -25.5705 
  33   2.0000      -0.919809       -25.0293 
  34   2.0000      -0.876415       -23.8485 
  35   2.0000      -0.850991       -23.1566 
  36   2.0000      -0.827326       -22.5127 
  37   2.0000      -0.811557       -22.0836 
  38   2.0000      -0.766444       -20.8560 
  39   2.0000      -0.763212       -20.7681 
  40   2.0000      -0.759655       -20.6713 
  41   2.0000      -0.735079       -20.0025 
  42   2.0000      -0.713340       -19.4110 
  43   2.0000      -0.689030       -18.7495 
  44   2.0000      -0.662458       -18.0264 
  45   2.0000      -0.641166       -17.4470 
  46   2.0000      -0.636039       -17.3075 
  47   2.0000      -0.621136       -16.9020 
  48   2.0000      -0.611497       -16.6397 
  49   2.0000      -0.599277       -16.3072 
  50   2.0000      -0.595623       -16.2077 
  51   2.0000      -0.570212       -15.5163 
  52   2.0000      -0.563624       -15.3370 
  53   2.0000      -0.546614       -14.8741 
  54   2.0000      -0.513136       -13.9631 
  55   2.0000      -0.510582       -13.8936 
  56   2.0000      -0.506454       -13.7813 
  57   2.0000      -0.501034       -13.6338 
  58   2.0000      -0.488902       -13.3037 
  59   2.0000      -0.482463       -13.1285 
  60   2.0000      -0.480687       -13.0802 
  61   2.0000      -0.467651       -12.7254 
  62   2.0000      -0.464935       -12.6515 
  63   2.0000      -0.463987       -12.6257 
  64   2.0000      -0.460434       -12.5291 
  65   2.0000      -0.453703       -12.3459 
  66   2.0000      -0.447510       -12.1774 
  67   2.0000      -0.436677       -11.8826 
  68   2.0000      -0.435648       -11.8546 
  69   2.0000      -0.428897       -11.6709 
  70   2.0000      -0.422498       -11.4968 
  71   2.0000      -0.415407       -11.3038 
  72   2.0000      -0.405242       -11.0272 
  73   2.0000      -0.404437       -11.0053 
  74   2.0000      -0.392267       -10.6741 
  75   2.0000      -0.381295       -10.3756 
  76   2.0000      -0.379446       -10.3253 
  77   2.0000      -0.374311       -10.1855 
  78   2.0000      -0.372336       -10.1318 
  79   2.0000      -0.361089        -9.8257 
  80   2.0000      -0.351144        -9.5551 
  81   2.0000      -0.345976        -9.4145 
  82   2.0000      -0.345307        -9.3963 
  83   2.0000      -0.338569        -9.2129 
  84   2.0000      -0.311567        -8.4782 
  85   2.0000      -0.303370        -8.2551 
  86   2.0000      -0.291367        -7.9285 
  87   2.0000      -0.280741        -7.6393 
  88   2.0000      -0.271163        -7.3787 
  89   2.0000      -0.268470        -7.3055 
  90   2.0000      -0.261207        -7.1078 
  91   2.0000      -0.257905        -7.0179 
  92   2.0000      -0.245038        -6.6678 
  93   2.0000      -0.229858        -6.2547 
  94   0.0000      -0.088843        -2.4175 
  95   0.0000      -0.042891        -1.1671 
  96   0.0000      -0.034602        -0.9416 
  97   0.0000      -0.017431        -0.4743 
  98   0.0000      -0.010785        -0.2935 
  99   0.0000      -0.001890        -0.0514 
 100   0.0000       0.030313         0.8249 
 101   0.0000       0.051504         1.4015 
 102   0.0000       0.067490         1.8365 
 103   0.0000       0.073638         2.0038 
 104   0.0000       0.080804         2.1988 
*Only the first 10 virtual orbitals were printed.

                    ********************************
                    * MULLIKEN POPULATION ANALYSIS *
                    ********************************

-----------------------
MULLIKEN ATOMIC CHARGES
-----------------------
   0 O :   -0.345892
   1 C :    0.167080
   2 N :   -0.200856
   3 C :    0.340497
   4 C :   -0.116920
   5 C :    0.077558
   6 N :   -0.125972
   7 C :    0.078734
   8 C :    0.270925
   9 O :   -0.236783
  10 C :    0.050816
  11 C :    0.044542
  12 C :    0.198505
  13 O :   -0.272663
  14 C :   -0.028130
  15 C :    0.024504
  16 C :    0.023076
  17 C :   -0.032345
  18 N :   -0.088883
  19 N :   -0.169653
  20 C :   -0.016545
  21 C :   -0.034836
  22 C :   -0.006688
  23 C :    0.026142
  24 C :   -0.053858
  25 C :    0.133053
  26 O :   -0.239213
  27 H :    0.156441
  28 H :    0.037544
  29 H :    0.024518
  30 H :    0.040997
  31 H :    0.026534
  32 H :    0.007498
  33 H :    0.022697
  34 H :    0.014379
  35 H :    0.013161
  36 H :    0.003378
  37 H :   -0.001448
  38 H :    0.008192
  39 H :   -0.011601
  40 H :    0.191514
Sum of atomic charges:    0.0000000

--------------------------------
MULLIKEN REDUCED ORBITAL CHARGES
--------------------------------
  0 O s       :     3.743630  s :     3.743630
      pz      :     1.432431  p :     4.586123
      px      :     1.701807
      py      :     1.451885
      dz2     :     0.004195  d :     0.016139
      dxz     :     0.002497
      dyz     :     0.005014
      dx2y2   :     0.002336
      dxy     :     0.002098

  1 C s       :     3.066972  s :     3.066972
      pz      :     0.891608  p :     2.651952
      px      :     0.885856
      py      :     0.874488
      dz2     :     0.022866  d :     0.113996
      dxz     :     0.027474
      dyz     :     0.015021
      dx2y2   :     0.023144
      dxy     :     0.025491

  2 N s       :     3.373963  s :     3.373963
      pz      :     1.293442  p :     3.807225
      px      :     1.093635
      py      :     1.420148
      dz2     :     0.003482  d :     0.019668
      dxz     :     0.004393
      dyz     :     0.002491
      dx2y2   :     0.004889
      dxy     :     0.004412

  3 C s       :     2.834839  s :     2.834839
      pz      :     0.961906  p :     2.775232
      px      :     0.849102
      py      :     0.964224
      dz2     :     0.010674  d :     0.049431
      dxz     :     0.008436
      dyz     :     0.006034
      dx2y2   :     0.012050
      dxy     :     0.012236

  4 C s       :     3.118240  s :     3.118240
      pz      :     0.931594  p :     2.942004
      px      :     0.982175
      py      :     1.028235
      dz2     :     0.014354  d :     0.056675
      dxz     :     0.016508
      dyz     :     0.010189
      dx2y2   :     0.007406
      dxy     :     0.008219

  5 C s       :     3.226554  s :     3.226554
      pz      :     0.822594  p :     2.651063
      px      :     0.857544
      py      :     0.970925
      dz2     :     0.007983  d :     0.044825
      dxz     :     0.014989
      dyz     :     0.006205
      dx2y2   :     0.006960
      dxy     :     0.008688

  6 N s       :     3.399476  s :     3.399476
      pz      :     1.134425  p :     3.687434
      px      :     1.147942
      py      :     1.405068
      dz2     :     0.009824  d :     0.039062
      dxz     :     0.010797
      dyz     :     0.006895
      dx2y2   :     0.005986
      dxy     :     0.005561

  7 C s       :     3.033827  s :     3.033827
      pz      :     0.930845  p :     2.836931
      px      :     0.864525
      py      :     1.041560
      dz2     :     0.011962  d :     0.050508
      dxz     :     0.011915
      dyz     :     0.005224
      dx2y2   :     0.011118
      dxy     :     0.010288

  8 C s       :     3.029707  s :     3.029707
      pz      :     0.957405  p :     2.576597
      px      :     0.779211
      py      :     0.839980
      dz2     :     0.035259  d :     0.122771
      dxz     :     0.026397
      dyz     :     0.015897
      dx2y2   :     0.023788
      dxy     :     0.021430

  9 O s       :     3.730476  s :     3.730476
      pz      :     1.518783  p :     4.489126
      px      :     1.558278
      py      :     1.412065
      dz2     :     0.003727  d :     0.017181
      dxz     :     0.004877
      dyz     :     0.004020
      dx2y2   :     0.002243
      dxy     :     0.002315

 10 C s       :     3.298144  s :     3.298144
      pz      :     0.825836  p :     2.616636
      px      :     0.904188
      py      :     0.886612
      dz2     :     0.007254  d :     0.034403
      dxz     :     0.010044
      dyz     :     0.004360
      dx2y2   :     0.006651
      dxy     :     0.006094

 11 C s       :     3.058340  s :     3.058340
      pz      :     0.955658  p :     2.854685
      px      :     0.893593
      py      :     1.005434
      dz2     :     0.011483  d :     0.042433
      dxz     :     0.010993
      dyz     :     0.006884
      dx2y2   :     0.006581
      dxy     :     0.006492

 12 C s       :     3.004902  s :     3.004902
      pz      :     0.912463  p :     2.728201
      px      :     0.868699
      py      :     0.947040
      dz2     :     0.014694  d :     0.068391
      dxz     :     0.021190
      dyz     :     0.012146
      dx2y2   :     0.009644
      dxy     :     0.010718

 13 O s       :     3.739651  s :     3.739651
      pz      :     1.603499  p :     4.517723
      px      :     1.296420
      py      :     1.617804
      dz2     :     0.002964  d :     0.015289
      dxz     :     0.004200
      dyz     :     0.002734
      dx2y2   :     0.003014
      dxy     :     0.002377

 14 C s       :     3.283349  s :     3.283349
      pz      :     0.785889  p :     2.711613
      px      :     0.943417
      py      :     0.982307
      dz2     :     0.008779  d :     0.033168
      dxz     :     0.008154
      dyz     :     0.004105
      dx2y2   :     0.006317
      dxy     :     0.005812

 15 C s       :     3.181242  s :     3.181242
      pz      :     0.944412  p :     2.758663
      px      :     0.874245
      py      :     0.940006
      dz2     :     0.009904  d :     0.035591
      dxz     :     0.010409
      dyz     :     0.006796
      dx2y2   :     0.004622
      dxy     :     0.003860

[...]
105:   1662.30   0.050796  256.70  0.009536  ( 0.077752  0.058026  0.011109)
106:   1680.84   0.007190   36.33  0.001335  ( 0.019897  0.007632  0.029677)
107:   1695.70   0.066594  336.54  0.012255  (-0.044811  0.022191  0.098767)
108:   1796.64   0.231203  1168.41  0.040158  ( 0.134813  0.091795  0.116436)
109:   3086.46   0.006844   34.59  0.000692  (-0.002700  0.026164 -0.000429)
110:   3106.20   0.224574  1134.90  0.022562  ( 0.105433 -0.106067 -0.013974)
111:   3151.15   0.000538    2.72  0.000053  (-0.002317 -0.001243  0.006812)
112:   3179.71   0.000246    1.24  0.000024  ( 0.000576 -0.001717  0.004571)
113:   3185.90   0.002014   10.18  0.000197  ( 0.009574 -0.010275  0.000255)
114:   3189.94   0.000009    0.05  0.000001  ( 0.000486  0.000276  0.000773)
115:   3196.75   0.000559    2.83  0.000055  ( 0.002257  0.002222 -0.006677)
116:   3197.25   0.002712   13.70  0.000265  ( 0.003393 -0.009312  0.012901)
117:   3204.95   0.001532    7.74  0.000149  ( 0.006559 -0.002725 -0.009935)
118:   3207.14   0.001576    7.96  0.000153  (-0.008761 -0.005985 -0.006383)
119:   3213.94   0.000603    3.05  0.000059  (-0.006225 -0.004447  0.000232)
120:   3216.42   0.001183    5.98  0.000115  ( 0.007686  0.003530  0.006577)
121:   3326.88   0.006620   33.46  0.000621  ( 0.006768 -0.008390  0.022468)
122:   3633.98   0.020860  105.42  0.001791  ( 0.003126  0.005857 -0.041800)

* The epsilon (eps) is given for a Dirac delta lineshape.
** The dipole moment derivative (T) already includes vibrational overlap.

The first frequency considered to be a vibration is 6
The total number of vibrations considered is 117


--------------------------
THERMOCHEMISTRY AT 298.15K
--------------------------

Temperature         ...   298.15 K
Pressure            ...     1.00 atm
Total Mass          ...   362.34 AMU
Quasi RRHO          ...     True
Cut-Off Frequency   ...     1.00 cm^-1

Throughout the following assumptions are being made:
  (1) The electronic state is orbitally nondegenerate
  (2) There are no thermally accessible electronically excited states
  (3) Hindered rotations indicated by low frequency modes are not
      treated as such but are treated as vibrations and this may
      cause some error
  (4) All equations used are the standard statistical mechanics
      equations for an ideal gas
  (5) All vibrations are strictly harmonic

freq.      12.09  E(vib)   ...       0.58 
freq.      14.66  E(vib)   ...       0.57 
freq.      19.83  E(vib)   ...       0.56 
freq.      37.58  E(vib)   ...       0.54 
freq.      55.05  E(vib)   ...       0.52 
freq.      62.90  E(vib)   ...       0.51 
freq.      79.02  E(vib)   ...       0.49 
freq.     106.19  E(vib)   ...       0.45 
freq.     123.84  E(vib)   ...       0.43 
freq.     147.93  E(vib)   ...       0.41 
freq.     166.45  E(vib)   ...       0.39 
freq.     199.57  E(vib)   ...       0.35 
freq.     246.80  E(vib)   ...       0.31 
freq.     254.49  E(vib)   ...       0.30 
freq.     265.03  E(vib)   ...       0.29 
freq.     277.43  E(vib)   ...       0.28 
freq.     309.33  E(vib)   ...       0.26 
freq.     330.42  E(vib)   ...       0.24 
freq.     352.69  E(vib)   ...       0.22 
freq.     371.65  E(vib)   ...       0.21 
freq.     398.07  E(vib)   ...       0.20 
freq.     422.45  E(vib)   ...       0.18 
freq.     444.25  E(vib)   ...       0.17 
freq.     453.56  E(vib)   ...       0.16 
freq.     466.53  E(vib)   ...       0.16 
freq.     473.94  E(vib)   ...       0.15 
freq.     489.28  E(vib)   ...       0.15 
freq.     493.27  E(vib)   ...       0.14 
freq.     540.82  E(vib)   ...       0.12 
freq.     551.01  E(vib)   ...       0.12 
freq.     565.73  E(vib)   ...       0.11 
freq.     570.14  E(vib)   ...       0.11 
freq.     581.59  E(vib)   ...       0.11 
freq.     605.66  E(vib)   ...       0.10 
freq.     646.40  E(vib)   ...       0.09 
freq.     670.78  E(vib)   ...       0.08 
freq.     682.11  E(vib)   ...       0.08 
freq.     708.27  E(vib)   ...       0.07 
freq.     721.96  E(vib)   ...       0.07 
freq.     755.52  E(vib)   ...       0.06 
freq.     762.47  E(vib)   ...       0.06 
freq.     767.88  E(vib)   ...       0.06 
freq.     772.83  E(vib)   ...       0.05 
freq.     778.37  E(vib)   ...       0.05 
freq.     781.96  E(vib)   ...       0.05 
freq.     788.83  E(vib)   ...       0.05 
freq.     814.41  E(vib)   ...       0.05 
freq.     841.45  E(vib)   ...       0.04 
freq.     858.20  E(vib)   ...       0.04 
freq.     864.06  E(vib)   ...       0.04 
freq.     873.87  E(vib)   ...       0.04 
freq.     883.90  E(vib)   ...       0.04 
freq.     893.10  E(vib)   ...       0.03 
freq.     929.79  E(vib)   ...       0.03 
freq.     963.36  E(vib)   ...       0.03 
freq.     973.09  E(vib)   ...       0.03 
freq.     979.94  E(vib)   ...       0.02 
freq.     982.60  E(vib)   ...       0.02 
freq.     993.46  E(vib)   ...       0.02 
freq.    1020.24  E(vib)   ...       0.02 
freq.    1028.85  E(vib)   ...       0.02 
freq.    1031.18  E(vib)   ...       0.02 
freq.    1046.79  E(vib)   ...       0.02 
freq.    1054.11  E(vib)   ...       0.02 
freq.    1060.88  E(vib)   ...       0.02 
freq.    1063.83  E(vib)   ...       0.02 
freq.    1124.67  E(vib)   ...       0.01 
freq.    1128.77  E(vib)   ...       0.01 
freq.    1139.72  E(vib)   ...       0.01 
freq.    1154.60  E(vib)   ...       0.01 
freq.    1157.21  E(vib)   ...       0.01 
freq.    1188.05  E(vib)   ...       0.01 
freq.    1193.29  E(vib)   ...       0.01 
freq.    1213.31  E(vib)   ...       0.01 
freq.    1247.54  E(vib)   ...       0.01 
freq.    1251.61  E(vib)   ...       0.01 
freq.    1266.65  E(vib)   ...       0.01 
freq.    1270.53  E(vib)   ...       0.01 
freq.    1297.15  E(vib)   ...       0.01 
freq.    1303.15  E(vib)   ...       0.01 
freq.    1338.21  E(vib)   ...       0.01 
freq.    1344.34  E(vib)   ...       0.01 
freq.    1364.40  E(vib)   ...       0.01 
freq.    1377.76  E(vib)   ...       0.01 
freq.    1391.80  E(vib)   ...       0.00 
freq.    1397.52  E(vib)   ...       0.00 
freq.    1421.47  E(vib)   ...       0.00 
freq.    1435.64  E(vib)   ...       0.00 
freq.    1439.50  E(vib)   ...       0.00 
freq.    1460.74  E(vib)   ...       0.00 
freq.    1485.56  E(vib)   ...       0.00 
freq.    1505.07  E(vib)   ...       0.00 
freq.    1526.54  E(vib)   ...       0.00 
freq.    1526.68  E(vib)   ...       0.00 
freq.    1564.87  E(vib)   ...       0.00 
freq.    1592.31  E(vib)   ...       0.00 
freq.    1617.77  E(vib)   ...       0.00 
freq.    1634.56  E(vib)   ...       0.00 
freq.    1644.79  E(vib)   ...       0.00 
freq.    1662.30  E(vib)   ...       0.00 
freq.    1680.84  E(vib)   ...       0.00 
freq.    1695.70  E(vib)   ...       0.00 
freq.    1796.64  E(vib)   ...       0.00 
freq.    3086.46  E(vib)   ...       0.00 
freq.    3106.20  E(vib)   ...       0.00 
freq.    3151.15  E(vib)   ...       0.00 
freq.    3179.71  E(vib)   ...       0.00 
freq.    3185.90  E(vib)   ...       0.00 
freq.    3189.94  E(vib)   ...       0.00 
freq.    3196.75  E(vib)   ...       0.00 
freq.    3197.25  E(vib)   ...       0.00 
freq.    3204.95  E(vib)   ...       0.00 
freq.    3207.14  E(vib)   ...       0.00 
freq.    3213.94  E(vib)   ...       0.00 
freq.    3216.42  E(vib)   ...       0.00 
freq.    3326.88  E(vib)   ...       0.00 
freq.    3633.98  E(vib)   ...       0.00 

------------
INNER ENERGY
------------

The inner energy is: U= E(el) + E(ZPE) + E(vib) + E(rot) + E(trans)
    E(el)   - is the total energy from the electronic structure calculation
              = E(kin-el) + E(nuc-el) + E(el-el) + E(nuc-nuc)
    E(ZPE)  - the the zero temperature vibrational energy from the frequency calculation
    E(vib)  - the the finite temperature correction to E(ZPE) due to population
              of excited vibrational states
    E(rot)  - is the rotational thermal energy
    E(trans)- is the translational thermal energy

Summary of contributions to the inner energy U:
Electronic energy                ...  -1250.87127851 Eh
Zero point energy                ...      0.30851323 Eh     193.59 kcal/mol
Thermal vibrational correction   ...      0.01822062 Eh      11.43 kcal/mol
Thermal rotational correction    ...      0.00141627 Eh       0.89 kcal/mol
Thermal translational correction ...      0.00141627 Eh       0.89 kcal/mol
-----------------------------------------------------------------------
Total thermal energy                  -1250.54171211 Eh


Summary of corrections to the electronic energy:
(perhaps to be used in another calculation)
Total thermal correction                  0.02105316 Eh      13.21 kcal/mol
Non-thermal (ZPE) correction              0.30851323 Eh     193.59 kcal/mol
-----------------------------------------------------------------------
Total correction                          0.32956640 Eh     206.81 kcal/mol


--------
ENTHALPY
--------

The enthalpy is H = U + kB*T
                kB is Boltzmann's constant
Total thermal energy              ...  -1250.54171211 Eh 
Thermal Enthalpy correction       ...      0.00094421 Eh       0.59 kcal/mol
-----------------------------------------------------------------------
Total Enthalpy                    ...  -1250.54076790 Eh


Note: Only C1 symmetry has been detected, increase convergence thresholds 
      if your molecule has a higher symmetry. Symmetry factor of 1.0 is   
      used for the rotational entropy correction. 
 

Note: Rotational entropy computed according to Herzberg 
Infrared and Raman Spectra, Chapter V,1, Van Nostrand Reinhold, 1945 
Point Group:  C1, Symmetry Number:   1  
Rotational constants in cm-1:     0.012229     0.002574     0.002431 

Vibrational entropy computed according to the QRRHO of S. Grimme
Chem.Eur.J. 2012 18 9955 using a reference frequency of 100.0 cm-1


-------
ENTROPY
-------

The entropy contributions are T*S = T*(S(el)+S(vib)+S(rot)+S(trans))
     S(el)   - electronic entropy
     S(vib)  - vibrational entropy
     S(rot)  - rotational entropy
     S(trans)- translational entropy
The entropies will be listed as multiplied by the temperature to get
units of energy

Electronic entropy                ...      0.00000000 Eh      0.00 kcal/mol
Vibrational entropy               ...      0.03275715 Eh     20.56 kcal/mol
Rotational entropy                ...      0.01724619 Eh     10.82 kcal/mol
Translational entropy             ...      0.02069459 Eh     12.99 kcal/mol
-----------------------------------------------------------------------
Final entropy term                ...      0.07069793 Eh     44.36 kcal/mol

In case the symmetry of your molecule has not been determined correctly
or in case you have a reason to use a different symmetry number we print 
out the resulting rotational entropy values for sn=1,12:

 non-linear molecules -----------------------------------
|  sn= 1 | S(rot)=       0.01724619 Eh     10.82 kcal/mol|
|  sn= 2 | S(rot)=       0.01659173 Eh     10.41 kcal/mol|
|  sn= 3 | S(rot)=       0.01620890 Eh     10.17 kcal/mol|
|  sn= 4 | S(rot)=       0.01593728 Eh     10.00 kcal/mol|
|  sn= 5 | S(rot)=       0.01572659 Eh      9.87 kcal/mol|
|  sn= 6 | S(rot)=       0.01555444 Eh      9.76 kcal/mol|
|  sn= 7 | S(rot)=       0.01540890 Eh      9.67 kcal/mol|
|  sn= 8 | S(rot)=       0.01528282 Eh      9.59 kcal/mol|
|  sn= 9 | S(rot)=       0.01517161 Eh      9.52 kcal/mol|
|  sn=10 | S(rot)=       0.01507213 Eh      9.46 kcal/mol|
|  sn=11 | S(rot)=       0.01498214 Eh      9.40 kcal/mol|
|  sn=12 | S(rot)=       0.01489999 Eh      9.35 kcal/mol|
 linear molecules ---------------------------------------
|  Dinfh | S(rot)=       0.01100911 Eh      6.91 kcal/mol|
|  Cinfv | S(rot)=       0.01166356 Eh      7.32 kcal/mol|
 --------------------------------------------------------


-------------------
GIBBS FREE ENERGY
-------------------

The Gibbs free energy is G = H - T*S

Total enthalpy                    ...  -1250.54076790 Eh 
Total entropy correction          ...     -0.07069793 Eh    -44.36 kcal/mol
-----------------------------------------------------------------------
Final Gibbs free energy         ...  -1250.61146583 Eh

For completeness - the Gibbs free energy minus the electronic energy
G-E(el)                           ...      0.25981268 Eh    163.03 kcal/mol


Maximum memory used throughout the entire PROP-calculation: 261.1 MB

--------------------------------
SUGGESTED CITATIONS FOR THIS RUN
--------------------------------

Below you find a list of papers that are relevant to this ORCA run
We neither can nor want to force you to cite these papers, but we appreciate if you do
You receive ORCA, which is the product of decades of hard work by many enthusiastic individuals, for free
The only thing we kindly ask in return is that you cite our papers,
We deeply appreciate it, if you show your appreciation for ORCA by not just citing the generic ORCA reference.

Please note that relegating all ORCA citations to the supporting information does *not* help us.
SI sections are not indexed - citations you put there will not count into any citation statistics
But we need these citations in order to attract the funding resources that allow us to do what we are doing

Therefore, if you are a happy ORCA user, please consider citing a few of the papers listed below in the main body of your paper

In addition to the list printed below, the program has created the file CMR_GOLD_079_correct_opt_pal8.bibtex that contains the list in bibtex format
You can import this file easily into all common literature databanks and citation aid programs

It goes without saying that in many instances, there are alternative algorithms to achieve similar
results as the ones you have gotten from ORCA. It is, of course, also the case that in some instances
ORCA just re-implements algorithms worked out by others. We are fully aware of that and we are also
fully appreciative of our colleagues work. Hence this citation list should not be read as indicating
that the listed papers, which are focused on our own work, are the only ones worth citing. It simply
meant to make it easier for users to cite ORCA specific papers. It is not a substitute for doing your
own literature research and citing the relevant literature in a scientifically appropriate manner.

List of essential papers. We consider these as the minimum necessary citations

  1. Neese, F.
     Software update: the ORCA program system, version 6.0
     WIRES Comput. Molec. Sci. 2025 15(1), e70019
     doi.org/10.1002/wcms.70019

List of papers to cite with high priority. The work reported in these papers was absolutely
necessary for this run to complete.
Our perspective: the developers of density functionals and basis sets usually get cited in chemistry papers
Good! But without the algorithms to do something with them, the functionals or basis sets would not do anything.
Hence, in our opinion, the algorithm design and method developments papers are equally worthy of getting cited

  1. Neese, F.
     An improvement of the resolution of the identity approximation for the formation of the Coulomb matrix
     J. Comp. Chem. 2003 24(14), 1740-1747
     doi.org/10.1002/jcc.10318
  2. Neese, F.; Wennmohs, F.; Hansen, A.; Becker, U.
     Efficient, approximate and parallel Hartree-Fock and hybrid DFT calculations. A 'chain-of-spheres' algorithm for the Hartree-Fock exchange
     Chem. Phys. 2009 356(1-3), 98-109
     doi.org/10.1016/j.chemphys.2008.10.036
  3. Grimme, S.; Antony, J.; Ehrlich, S.; Krieg, H.
     A consistent and accurate ab initio parametrization of density functional dispersion correction (DFT-D) for the 94 elements H-Pu
     J. Chem. Phys. 2010 132 , 154104
     doi.org/10.1063/1.3382344
  4. Grimme, S.; Ehrlich, S.; Goerigk, L.
     Effect of the damping function in dispersion corrected density functional theory
     J. Comput. Chem. 2011 32(7), 1456-1465
     doi.org/10.1002/jcc.21759
  5. Bykov, D.; Petrenko, T.; Izsak, R.; Kossmann, S.; Becker, U.; Valeev, E.; Neese, F.
     Efficient implementation of the analytic second derivatives of Hartree-Fock and hybrid DFT energies: a detailed analysis of different approximations
     Molec. Phys. 2015 113 , 1961-1977
     doi.org/10.1080/00268976.2015.1025114
  6. Garcia-Rates, M.; Neese, F.
     Efficient implementation of the analytical second derivatives of hartree-fock and hybrid DFT energies within the framework of the conductor-like polarizable continuum model
     J. Comput. Chem. 2019 40 , 1816-1828
     doi.org/10.1002/jcc.25833
  7. Garcia-Rates, M.; Neese, F.
     Effect of the Solute Cavity on the Solvation Energy and its Derivatives within the Framework of the Gaussian Charge Scheme
     J. Comput. Chem. 2020 41 , 922-939
     doi.org/10.1002/jcc.26139
  8. Helmich-Paris, B.; de Souza, B.; Neese, F.; Izsák, R.
     An improved chain of spheres for exchange algorithm
     J. Chem. Phys. 2021 155(10), 104109
     doi.org/10.1063/5.0058766
  9. Neese, F.
     The SHARK Integral Generation and Digestion System
     J. Comp. Chem. 2022 44(3), 381
     doi.org/10.1002/jcc.26942

List of suggested additional citations. These are papers that are important in the 'surrounding' of 
of this run, or papers that preceded the highly important papers. If you like your results we are grateful for a citation.

  1. Izsak, R.; Neese, F.
     An overlap fitted chain of spheres exchange method
     J. Chem. Phys. 2011 135 , 144105
     doi.org/10.1063/1.3646921
  2. Izsak, R.; Hansen, A.; Neese, F.
     The resolution of identity and chain of spheres approximations for the LPNO-CCSD singles Fock term
     Molec. Phys. 2012 110 , 2413-2417
     doi.org/10.1080/00268976.2012.687466
  3. Neese, F.
     The ORCA program system
     WIRES Comput. Molec. Sci. 2012 2(1), 73-78
     doi.org/10.1002/wcms.81
  4. Izsak, R.; Neese, F.; Klopper, W.
     Robust fitting techniques in the chain of spheres approximation to the Fock exchange: The role of the complementary space
     J. Chem. Phys. 2013 139 , 
     doi.org/10.1063/1.4819264
  5. Neese, F.
     Software update: the ORCA program system, version 4.0
     WIRES Comput. Molec. Sci. 2018 8(1), 1-6
     doi.org/10.1002/wcms.1327
  6. Neese, F.; Wennmohs, F.; Becker, U.; Riplinger, C.
     The ORCA quantum chemistry program package
     J. Chem. Phys. 2020 152(22), 224108
     doi.org/10.1063/5.0004608
  7. Neese, F.
     Software update: The ORCA program system—Version 5.0
     WIRES Comput. Molec. Sci. 2022 12(1), e1606
     doi.org/10.1002/wcms.1606

List of optional additional citations

  1. Neese, F.
     Approximate second-order SCF convergence for spin unrestricted wavefunctions
     Chem. Phys. Lett. 2000 325(1-3), 93-98
     doi.org/10.1016/s0009-2614(00)00662-x

Timings for individual modules:

Sum of individual times          ...     2829.739 sec (=  47.162 min)
Startup calculation              ...      120.614 sec (=   2.010 min)   4.3 %
SCF iterations                   ...     1466.829 sec (=  24.447 min)  51.8 %
Property integrals               ...      120.389 sec (=   2.006 min)   4.3 %
SCF Response                     ...      212.595 sec (=   3.543 min)   7.5 %
Property calculations            ...      165.553 sec (=   2.759 min)   5.9 %
SCF Gradient evaluation          ...      742.546 sec (=  12.376 min)  26.2 %
Geometry relaxation              ...        1.213 sec (=   0.020 min)   0.0 %
                             ****ORCA TERMINATED NORMALLY****
TOTAL RUN TIME: 0 days 0 hours 47 minutes 27 seconds 170 msec
