
                                 *****************
                                 * O   R   C   A *
                                 *****************

                                            #,                                       
                                            ###                                      
                                            ####                                     
                                            #####                                    
                                            ######                                   
                                           ########,                                 
                                     ,,################,,,,,                         
                               ,,#################################,,                 
                          ,,##########################################,,             
                       ,#########################################, ''#####,          
                    ,#############################################,,   '####,        
                  ,##################################################,,,,####,       
                ,###########''''           ''''###############################       
              ,#####''   ,,,,##########,,,,          '''####'''          '####       
            ,##' ,,,,###########################,,,                        '##       
           ' ,,###''''                  '''############,,,                           
         ,,##''                                '''############,,,,        ,,,,,,###''
      ,#''                                            '''#######################'''  
     '                                                          ''''####''''         
             ,#######,   #######,   ,#######,      ##                                
            ,#'     '#,  ##    ##  ,#'     '#,    #''#        ,####,    ,#,          
            ##       ##  ##   ,#'  ##            #'  '#       #'       ,# #          
            ##       ##  #######   ##           ,######,      #####,      #          
            '#,     ,#'  ##    ##  '#,     ,#' ,#      #,     #,   #      #          
             '#######'   ##     ##  '#######'  #'      '#     '####' #    #          



                #########################################################
                #                        -***-                          #
                #          Department of theory and spectroscopy        #
                #                                                       #
                #                      Frank Neese                      #
                #                                                       #
                #     Directorship, Architecture, Infrastructure        #
                #                    SHARK, DRIVERS                     #
                #        Core code/Algorithms in most modules           #
                #                                                       #
                #        Max Planck Institute fuer Kohlenforschung      #
                #                Kaiser Wilhelm Platz 1                 #
                #                 D-45470 Muelheim/Ruhr                 #
                #                      Germany                          #
                #                                                       #
                #                  All rights reserved                  #
                #                        -***-                          #
                #########################################################


                         Program Version 6.1.1  -  RELEASE   -


 With contributions from (in alphabetic order):
[Max-Planck-Institut fuer Kohlenforschung]                               
  Daniel Aravena         : Magnetic Suceptibility                        
  Michael Atanasov       : Ab Initio Ligand Field Theory (pilot matlab implementation)
  Alexander A. Auer      : GIAO ZORA, VPT2 properties, NMR spectrum      
  Ute Becker             : All parallelization in ORCA, NUMFREQ, NUMCALC 
  Giovanni Bistoni       : ED, misc. LED, open-shell LED, HFLD           
  Dmytro Bykov           : pre 5.0 version of the SCF Hessian            
  Marcos Casanova-Páez   : Triplet and SCS-CIS(D). UHF-(DLPNO)-IP/EA/STEOM-CCSD. UHF-CVS-IP/STEOM-CCSD   
  Vijay G. Chilkuri      : MRCI spin determinant printing, contributions to CSF-ICE 
  Pauline Colinet        : FMM embedding                                 
  Dipayan Datta          : RHF DLPNO-CCSD density                        
  Achintya Kumar Dutta   : EOM-CC, STEOM-CC                              
  Nicolas Foglia         : Exact transition moments, OPA infrastructure, MCD improvements    
  Dmitry Ganyushin       : Spin-Orbit,Spin-Spin,Magnetic field MRCI      
  Miquel Garcia-Rates    : C-PCM and meta-GGA Hessian, CCSD/C-PCM, Gaussian charge scheme 
  Tiago L. C. Gouveia    : GS-ROHF, GS-ROCIS                             
  Yang Guo               : DLPNO-NEVPT2, F12-NEVPT2, CIM, IAO-localization        
  Andreas Hansen         : Spin unrestricted coupled pair/coupled cluster methods 
  Ingolf Harden          : AUTO-CI MPn and infrastructure                
  Benjamin Helmich-Paris : MC-RPA, TRAH-(SCF,CASSCF), AVAS, COSX integrals, SCF dyn. polar., MC-PDFT, srDFT 
  Lee Huntington         : MR-EOM, pCC                                   
  Robert Izsak           : Overlap fitted RIJCOSX, COSX-SCS-MP3, EOM     
  Riya Kayal             : Wick's Theorem for AUTO-CI, AUTO-CI UHF-CCSDT 
  Emily Kempfer          : AUTO-CI RHF CISDT and CCSDT, approximate NEVPT4
  Christian Kollmar      : KDIIS, OOCD, Brueckner-CCSD(T), CCSD density, CASPT2, CASPT2-K, improved NEVPT2 
  Axel Koslowski         : Symmetry handling                             
  Simone Kossmann        : meta-GGA functionals, TD-DFT gradient, OOMP2, (MP2 Hessian; deprecated post 5.0) 
  Lucas Lang             : DCDCAS, Hyperfine gauge corrections, ICE-SOC+SSC
  Marvin Lechner         : AUTO-CI (C++ implementation), FIC-MRCC        
  Spencer Leger          : CASSCF response                               
  Dagmar Lenk            : GEPOL surface, SMD, ORCA-2-JSON               
  Dimitrios Liakos       : Extrapolation schemes; Compound Job, Property file
  Dimitrios Manganas     : Further ROCIS development; embedding schemes. LFT, Crystal Embedding 
  Dimitrios Pantazis     : SARC Basis sets                               
  Anastasios Papadopoulos: AUTO-CI, single reference methods and gradients 
  Taras Petrenko         : pre 6.0 DFT Hessian and TD-DFT gradient,  ECA, NRVS 
  Petra Pikulova         : Analytic Raman intensities                    
  Peter Pinski           : DLPNO-MP2, DLPNO-MP2 Gradient                 
  Shashank Vittal Rao    : ES-AILFT, MagRelax                            
  Christoph Reimann      : Effective Core Potentials                     
  Marius Retegan         : Local ZFS, SOC                                
  Christoph Riplinger    : Optimizer, TS searches, QM/MM, DLPNO-CCSD(T), (RO)-DLPNO pert. Triples 
  Michael Roemelt        : Original ROCIS implementation, recursive CI coupling coefficients
  Masaaki Saitow         : Open-shell DLPNO-CCSD energy and density      
  Barbara Sandhoefer     : DKH picture change effects                    
  Yorick L. A. Schmerwitz: GMF and freeze-and-release deltaSCF, NEB S-IDPP initial path                    
  Kantharuban Sivalingam : CASSCF convergence/infrastructure, NEVPT2, NEVPT3, NEVPT4(SD), FIC-MRCI and CEPA variants
  Bernardo de Souza      : ESD, SOC TD-DFT                               
  Georgi L. Stoychev     : AutoAux, RI-MP2 NMR, DLPNO-MP2 response, X2C  
  Van Anh Tran           : RI-MP2 g-tensors                              
  Willem Van den Heuvel  : Paramagnetic NMR                              
  Zikuan Wang            : NOTCH, Electric field optimization            
  Frank Wennmohs         : Technical directorship and infrastructure     
  Hang Xu                : AUTO-CI-Response properties                   
                                                                         
[FACCTs GmbH]                                                            
  Markus Bursch, Nicolas Foglia, Miquel Garcia-Rates, Ingolf Harden, Hagen Neugebauer, Anastasios Papadopoulos, 
  Christoph Riplinger, Bernardo de Souza, Georgi L. Stoychev                                                    
                                                                 
  APM, various basis sets, CI-OPT, improved COSX, DLPNO-Multilevel,           
  DOCKER, DRACO, updates on ESD, Fragmentator, GOAT, IRC, LR-CPCM, L-BFGS, MBIS, meta-GGA TD-DFT gradient, ML-optimized integration grids, 
  MM, NACMEs, nearIR, NEB, NEB-TS, NL-DFT gradient (VV10), 2- and 3-layer-ONIOM, interface openCOSMO-RS, QMMM,   
  Crystal-QMMM, RESP, rigid body optimization, SF, symmetry and pop. for TD-DFT, various functionals, SOLVATOR                                   
                                                                         
[Other institutions]                                                     
  V. Asgeirsson          : NEB                                           
  Christoph Bannwarth    : sTDA-DFT, sTD-DFT, PBEh-3c, B97-3c, D3        
  Giovanni Bistoni       : ETS/NOCV, ADLD/ADEX, COVALED                  
  Martin Brehm           : Molecular dynamics                            
  Ronald Cardenas        : ETS/NOCV                                      
  Martina Colucci        : COVALED                                       
  Sebastian Ehlert       : rSCAN, r2SCAN, r2SCAN-3c, D4, dhf basis sets  
  Marvin Friede          : D4 for Fr, Ra, Ac-Lr                          
  Lars Goerigk           : TD-DFT with DH, B97 family of functionals     
  Stefan Grimme          : VdW corrections, initial TS optimization, DFT functionals, gCP, sTDA/sTD-DF 
  Waldemar Hujo          : DFT-NL                                        
  H. Jonsson             : NEB                                           
  Holger Kruse           : gCP                                           
  Marcel Mueller         : wB97X-3c, vDZP basis set                      
  Hagen Neugebauer       : wr2SCAN, Native XTB                           
  Gianluca Regni         : ADLD/ADEX                                     
  Tobias Risthaus        : pre 6.0 range-separated hybrid DFT and stability analysis
  Lukas Wittmann         : regularized MP2, r2SCAN double-hybrids, wr2SCAN        
                                                                         
We gratefully acknowledge several colleagues who have allowed us to      
interface, adapt or use parts of their codes:                            
  Ed Valeev, F. Pavosevic, A. Kumar             : LibInt (2-el integral package), F12 methods 
  Garnet Chan, S. Sharma, J. Yang, R. Olivares  : DMRG                   
  Ulf Ekstrom                                   : XCFun DFT Library      
  Mihaly Kallay                                 : mrcc  (arbitrary order and MRCC methods)
  Frank Weinhold                                : gennbo (NPA and NBO analysis)           
  Simon Mueller                                 : openCOSMO-RS                            
  Christopher J. Cramer and Donald G. Truhlar   : smd solvation model                     
  S Lehtola, MJT Oliveira, MAL Marques          : LibXC Library                           
  Liviu Ungur et al                             : ANISO software                          


 Your calculation uses the libint2 library for the computation of 2-el integrals
 For citations please refer to: http://libint.valeyev.net

 Your ORCA version has been built with support for libXC version: 7.0.0
 For citations please refer to: https://libxc.gitlab.io

 This ORCA versions uses:
   CBLAS   interface :  Fast vector & matrix operations
   LAPACKE interface :  Fast linear algebra routines
   Shared memory     :  Shared parallel matrices


  ***********************************
  * Starting time: Thu Apr 30 21:26:57 2026
  * Host name:     AHMET
  * Process ID:    38488
  * Working dir.:  C:\orca_tests\DFT_FINAL_PROPERTIES\079\02_sp_charge
  ***********************************

NOTE: MaxCore=3000 MB was set to SCF,MP2,MDCI,CIPSI,MRCI,RASCI and CIS
      => If you want to overwrite this, your respective input block should be placed after the MaxCore statement


***************************************
The coordinates will be read from file: geom.xyz
***************************************


Your calculation utilizes the atom-pairwise dispersion correction
with the Becke-Johnson damping scheme (D3BJ)


================================================================================

----- Orbital basis set information -----
Your calculation utilizes the basis: def2-SVP
   F. Weigend and R. Ahlrichs, Phys. Chem. Chem. Phys. 7, 3297 (2005).

----- AuxJ basis set information -----
Your calculation utilizes the auxiliary basis: def2/J
   H-Rn: F. Weigend, Phys. Chem. Chem. Phys. 8, 1057 (2006).
   Fr-Lr: K. Eichkorn, F. Weigend, O. Treutler, R. Ahlrichs; Theor. Chem. Acc. 97, 119 (1997).

================================================================================
                                        WARNINGS
                       Please study these warnings very carefully!
================================================================================


WARNING: MOInp is set but Guess=PModel. MOInp will be ignored!
         To read the initial guess from a file you must also specify
         'MORead' in the simple input or 'Guess MORead' in the %scf block


================================================================================
                                       INPUT FILE
================================================================================
NAME = CMR_GOLD_079_sp_charge_clean.inp
|  1> ! B3LYP D3BJ def2-SVP CPCM(Water) TightSCF RIJCOSX def2/J SP KeepDens
|  2> 
|  3> %maxcore 3000
|  4> 
|  5> %pal
|  6>   nprocs 8
|  7> end
|  8> 
|  9> %moinp "geom.gbw"
| 10> 
| 11> %output
| 12>   Print[P_Mulliken] 1
| 13>   Print[P_Loewdin] 1
| 14> end
| 15> 
| 16> * xyzfile 0 1 geom.xyz
| 17> 
| 18>                          ****END OF INPUT****
================================================================================

                       ****************************
                       * Single Point Calculation *
                       ****************************

---------------------------------
CARTESIAN COORDINATES (ANGSTROEM)
---------------------------------
  O     -2.813487   -1.299184   -1.129018
  C     -3.204958   -1.258067    0.060706
  N     -2.686948   -2.105132    0.970794
  C     -1.634173   -3.048851    0.615400
  C     -0.267598   -2.429243    0.570042
  C      0.282947   -1.579849   -0.371456
  N      1.529266   -1.308747    0.108130
  C      2.534275   -0.464022   -0.416568
  C      2.600176   -0.314077   -1.875159
  O      1.847726   -0.813752   -2.680413
  C      3.429371    0.153244    0.402257
  C      4.479554    0.960201   -0.146893
  C      4.535863    1.098382   -1.548368
  O      3.613403    0.478487   -2.340703
  C      5.522658    1.866231   -2.169339
  C      6.469314    2.508880   -1.373193
  C      6.434433    2.389337    0.028500
  C      5.448713    1.622717    0.637103
  N      1.739046   -1.961318    1.278071
  N      0.661198   -2.626601    1.552355
  C     -4.241525   -0.281211    0.485300
  C     -4.790038   -0.251283    1.783611
  C     -5.746923    0.690168    2.145854
  C     -6.179090    1.631521    1.196831
  C     -5.664849    1.621506   -0.094395
  C     -4.700018    0.667811   -0.472800
  O     -4.243501    0.686250   -1.729872
  H     -2.908513   -1.995231    1.952942
  H     -1.630594   -3.851248    1.364674
  H     -1.880865   -3.483871   -0.362622
  H     -0.101357   -1.162852   -1.293940
  H      3.352422    0.028879    1.483590
  H      5.532962    1.948601   -3.257528
  H      7.246480    3.112487   -1.847854
  H      7.183696    2.900241    0.636794
  H      5.407204    1.518954    1.723857
  H     -4.473709   -0.984094    2.529191
  H     -6.158420    0.692989    3.157171
  H     -6.929953    2.377473    1.470833
  H     -5.996114    2.342469   -0.845083
  H     -3.598069   -0.078195   -1.792707

----------------------------
CARTESIAN COORDINATES (A.U.)
----------------------------
  NO LB      ZA    FRAG     MASS         X           Y           Z
   0 O     8.0000    0    15.999   -5.316720   -2.455102   -2.133535
   1 C     6.0000    0    12.011   -6.056494   -2.377402    0.114717
   2 N     7.0000    0    14.007   -5.077595   -3.978122    1.834536
   3 C     6.0000    0    12.011   -3.088140   -5.761494    1.162937
   4 C     6.0000    0    12.011   -0.505687   -4.590604    1.077223
   5 C     6.0000    0    12.011    0.534693   -2.985483   -0.701950
   6 N     7.0000    0    14.007    2.889894   -2.473173    0.204336
   7 C     6.0000    0    12.011    4.789085   -0.876875   -0.787199
   8 C     6.0000    0    12.011    4.913620   -0.593519   -3.543536
   9 O     8.0000    0    15.999    3.491697   -1.537769   -5.065246
  10 C     6.0000    0    12.011    6.480572    0.289589    0.760155
  11 C     6.0000    0    12.011    8.465130    1.814517   -0.277587
  12 C     6.0000    0    12.011    8.571538    2.075642   -2.925991
  13 O     8.0000    0    15.999    6.828341    0.904210   -4.423287
  14 C     6.0000    0    12.011   10.436310    3.526666   -4.099456
  15 C     6.0000    0    12.011   12.225232    4.741095   -2.594959
  16 C     6.0000    0    12.011   12.159316    4.515193    0.053856
  17 C     6.0000    0    12.011   10.296575    3.066490    1.203951
  18 N     7.0000    0    14.007    3.286321   -3.706355    2.415205
  19 N     7.0000    0    14.007    1.249484   -4.963556    2.933525
  20 C     6.0000    0    12.011   -8.015321   -0.531412    0.917084
  21 C     6.0000    0    12.011   -9.051860   -0.474856    3.370535
  22 C     6.0000    0    12.011  -10.860110    1.304229    4.055076
  23 C     6.0000    0    12.011  -11.676787    3.083127    2.261682
  24 C     6.0000    0    12.011  -10.705014    3.064203   -0.178380
  25 C     6.0000    0    12.011   -8.881748    1.261980   -0.893462
  26 O     8.0000    0    15.999   -8.019056    1.296825   -3.268984
  27 H     1.0000    0     1.008   -5.496294   -3.770440    3.690525
  28 H     1.0000    0     1.008   -3.081377   -7.277803    2.578861
  29 H     1.0000    0     1.008   -3.554319   -6.583563   -0.685257
  30 H     1.0000    0     1.008   -0.191538   -2.197471   -2.445191
  31 H     1.0000    0     1.008    6.335159    0.054574    2.803579
  32 H     1.0000    0     1.008   10.455783    3.682321   -6.155835
  33 H     1.0000    0     1.008   13.693862    5.881747   -3.491937
  34 H     1.0000    0     1.008   13.575217    5.480660    1.203367
  35 H     1.0000    0     1.008   10.218134    2.870407    3.257617
  36 H     1.0000    0     1.008   -8.454084   -1.859668    4.779478
  37 H     1.0000    0     1.008  -11.637728    1.309560    5.966189
  38 H     1.0000    0     1.008  -13.095713    4.492773    2.779472
  39 H     1.0000    0     1.008  -11.331013    4.426624   -1.596975
  40 H     1.0000    0     1.008   -6.799365   -0.147766   -3.387726

--------------------------------
INTERNAL COORDINATES (ANGSTROEM)
--------------------------------
 O      0   0   0     0.000000000000     0.00000000     0.00000000
 C      1   0   0     1.253149362291     0.00000000     0.00000000
 N      2   1   0     1.346890841398   120.04749962     0.00000000
 C      3   2   1     1.457822456279   121.34129859     2.27604996
 C      4   3   2     1.501166269105   113.42700482    79.95599779
 C      5   4   3     1.382384826562   129.54920609   286.19028627
 N      6   5   4     1.362648000326   104.28824143   178.47890160
 C      7   6   5     1.413828205119   129.67341487   182.05357992
 C      8   7   6     1.467757910931   117.50038779   328.66605106
 O      9   8   7     1.210078664087   126.24190843     2.43051243
 C      8   7   6     1.361135052923   121.00760170   150.56392890
 C     11   8   7     1.433746407147   120.43160721   177.24480919
 C     12  11   8     1.409396066268   117.73031286     0.72757379
 O     13  12  11     1.364916438498   120.37845721     0.02901481
 C     13  12  11     1.396052161153   121.63260288   179.90922650
 C     15  13  12     1.393916806832   118.65717857   359.91780031
 C     16  15  13     1.407213193966   120.85836170   359.97136877
 C     17  16  15     1.389154182687   120.05701794     0.04414268
 N      7   6   5     1.355957484380   110.45205419     0.32447979
 N     19   7   6     1.295989271665   107.51695151   359.60525302
 C      2   1   3     1.486270021916   120.70738082   180.04927182
 C     21   2   1     1.409741917873   123.25804668   175.29597157
 C     22  21   2     1.390387714054   121.47260441   179.19557181
 C     23  22  21     1.404833741914   119.30339219     0.11233088
 C     24  23  22     1.389894451282   120.59315382     0.38214731
 C     25  24  23     1.408411687970   120.52659543   359.92230361
 O     26  25  24     1.337527049787   118.48935759   179.29086755
 H      3   2   1     1.012809205057   120.18948399   171.90675620
 H      4   3   2     1.097845439635   108.00551620   200.40483840
 H      4   3   2     1.098465403678   108.13401326   317.74980694
 H      6   5   4     1.082844738822   132.49158459   359.07558852
 H     11   8   7     1.091178091283   119.87354318   357.64279557
 H     15  13  12     1.091350304350   119.45254286   179.98190578
 H     16  15  13     1.092533650179   119.31879837   179.99262149
 H     17  16  15     1.091988594957   119.87529948   180.03868754
 H     18  17  16     1.092484719031   121.01004985   179.97894954
 H     22  21   2     1.092229937287   120.11481901   358.54600138
 H     23  22  21     1.091833947973   120.16218173   179.91698741
 H     24  23  22     1.093306054034   119.94449613   180.09241515
 H     25  24  23     1.092270454213   121.43414263   179.56905473
 H     27  26  25     1.002450628785   105.55452752   181.62332808

---------------------------
INTERNAL COORDINATES (A.U.)
---------------------------
 O      0   0   0     0.000000000000     0.00000000     0.00000000
 C      1   0   0     2.368109099629     0.00000000     0.00000000
 N      2   1   0     2.545254822529   120.04749962     0.00000000
 C      3   2   1     2.754885194248   121.34129859     2.27604996
 C      4   3   2     2.836793130089   113.42700482    79.95599779
 C      5   4   3     2.612328733891   129.54920609   286.19028627
 N      6   5   4     2.575031537552   104.28824143   178.47890160
 C      7   6   5     2.671748108089   129.67341487   182.05357992
 C      8   7   6     2.773660482556   117.50038779   328.66605106
 O      9   8   7     2.286717275626   126.24190843     2.43051243
 C      8   7   6     2.572172481305   121.00760170   150.56392890
 C     11   8   7     2.709388055001   120.43160721   177.24480919
 C     12  11   8     2.663372579472   117.73031286     0.72757379
 O     13  12  11     2.579318264448   120.37845721     0.02901481
 C     13  12  11     2.638156253249   121.63260288   179.90922650
 C     15  13  12     2.634121018382   118.65717857   359.91780031
 C     16  15  13     2.659247548637   120.85836170   359.97136877
 C     17  16  15     2.625120963070   120.05701794     0.04414268
 N      7   6   5     2.562388294719   110.45205419     0.32447979
 N     19   7   6     2.449064795947   107.51695151   359.60525302
 C      2   1   3     2.808643302478   120.70738082   180.04927182
 C     21   2   1     2.664026144290   123.25804668   175.29597157
 C     22  21   2     2.627451999531   121.47260441   179.19557181
 C     23  22  21     2.654751035909   119.30339219     0.11233088
 C     24  23  22     2.626519867980   120.59315382     0.38214731
 C     25  24  23     2.661512374076   120.52659543   359.92230361
 O     26  25  24     2.527559820810   118.48935759   179.29086755
 H      3   2   1     1.913932023472   120.18948399   171.90675620
 H      4   3   2     2.074627218284   108.00551620   200.40483840
 H      4   3   2     2.075798780538   108.13401326   317.74980694
 H      6   5   4     2.046280001931   132.49158459   359.07558852
 H     11   8   7     2.062027755860   119.87354318   357.64279557
 H     15  13  12     2.062353191393   119.45254286   179.98190578
 H     16  15  13     2.064589390932   119.31879837   179.99262149
 H     17  16  15     2.063559385834   119.87529948   180.03868754
 H     18  17  16     2.064496924463   121.01004985   179.97894954
 H     22  21   2     2.064015456743   120.11481901   358.54600138
 H     23  22  21     2.063267145387   120.16218173   179.91698741
 H     24  23  22     2.066049022683   119.94449613   180.09241515
 H     25  24  23     2.064092022636   121.43414263   179.56905473
 H     27  26  25     1.894357151181   105.55452752   181.62332808

---------------------
BASIS SET INFORMATION
---------------------
There are 4 groups of distinct atoms

 Group   1 Type O   : 7s4p1d contracted to 3s2p1d pattern {511/31/1}
 Group   2 Type C   : 7s4p1d contracted to 3s2p1d pattern {511/31/1}
 Group   3 Type N   : 7s4p1d contracted to 3s2p1d pattern {511/31/1}
 Group   4 Type H   : 4s1p contracted to 2s1p pattern {31/1}

Atom   0O    basis set group =>   1
Atom   1C    basis set group =>   2
Atom   2N    basis set group =>   3
Atom   3C    basis set group =>   2
Atom   4C    basis set group =>   2
Atom   5C    basis set group =>   2
Atom   6N    basis set group =>   3
Atom   7C    basis set group =>   2
Atom   8C    basis set group =>   2
Atom   9O    basis set group =>   1
Atom  10C    basis set group =>   2
Atom  11C    basis set group =>   2
Atom  12C    basis set group =>   2
Atom  13O    basis set group =>   1
Atom  14C    basis set group =>   2
Atom  15C    basis set group =>   2
Atom  16C    basis set group =>   2
Atom  17C    basis set group =>   2
Atom  18N    basis set group =>   3
Atom  19N    basis set group =>   3
Atom  20C    basis set group =>   2
Atom  21C    basis set group =>   2
Atom  22C    basis set group =>   2
Atom  23C    basis set group =>   2
Atom  24C    basis set group =>   2
Atom  25C    basis set group =>   2
Atom  26O    basis set group =>   1
Atom  27H    basis set group =>   4
Atom  28H    basis set group =>   4
Atom  29H    basis set group =>   4
Atom  30H    basis set group =>   4
Atom  31H    basis set group =>   4
Atom  32H    basis set group =>   4
Atom  33H    basis set group =>   4
Atom  34H    basis set group =>   4
Atom  35H    basis set group =>   4
Atom  36H    basis set group =>   4
Atom  37H    basis set group =>   4
Atom  38H    basis set group =>   4
Atom  39H    basis set group =>   4
Atom  40H    basis set group =>   4
---------------------------------
AUXILIARY/J BASIS SET INFORMATION
---------------------------------
There are 4 groups of distinct atoms

 Group   1 Type O   : 12s5p4d2f1g contracted to 6s4p3d1f1g pattern {711111/2111/211/2/1}
 Group   2 Type C   : 12s5p4d2f1g contracted to 6s4p3d1f1g pattern {711111/2111/211/2/1}
 Group   3 Type N   : 12s5p4d2f1g contracted to 6s4p3d1f1g pattern {711111/2111/211/2/1}
 Group   4 Type H   : 5s2p1d contracted to 3s1p1d pattern {311/2/1}

Atom   0O    basis set group =>   1
Atom   1C    basis set group =>   2
Atom   2N    basis set group =>   3
Atom   3C    basis set group =>   2
Atom   4C    basis set group =>   2
Atom   5C    basis set group =>   2
Atom   6N    basis set group =>   3
Atom   7C    basis set group =>   2
Atom   8C    basis set group =>   2
Atom   9O    basis set group =>   1
Atom  10C    basis set group =>   2
Atom  11C    basis set group =>   2
Atom  12C    basis set group =>   2
Atom  13O    basis set group =>   1
Atom  14C    basis set group =>   2
Atom  15C    basis set group =>   2
Atom  16C    basis set group =>   2
Atom  17C    basis set group =>   2
Atom  18N    basis set group =>   3
Atom  19N    basis set group =>   3
Atom  20C    basis set group =>   2
Atom  21C    basis set group =>   2
Atom  22C    basis set group =>   2
Atom  23C    basis set group =>   2
Atom  24C    basis set group =>   2
Atom  25C    basis set group =>   2
Atom  26O    basis set group =>   1
Atom  27H    basis set group =>   4
Atom  28H    basis set group =>   4
Atom  29H    basis set group =>   4
Atom  30H    basis set group =>   4
Atom  31H    basis set group =>   4
Atom  32H    basis set group =>   4
Atom  33H    basis set group =>   4
Atom  34H    basis set group =>   4
Atom  35H    basis set group =>   4
Atom  36H    basis set group =>   4
Atom  37H    basis set group =>   4
Atom  38H    basis set group =>   4
Atom  39H    basis set group =>   4
Atom  40H    basis set group =>   4


           ************************************************************
           *        Program running with 8 parallel MPI-processes     *
           *              working on a common directory               *
           ************************************************************
------------------------------------------------------------------------------
                             ORCA STARTUP CALCULATIONS
                           -- RI-GTO INTEGRALS CHOSEN --
------------------------------------------------------------------------------
------------------------------------------------------------------------------
                   ___                                                        
                  /   \      - P O W E R E D   B Y -                         
                 /     \                                                     
                 |  |  |   _    _      __       _____    __    __             
                 |  |  |  | |  | |    /  \     |  _  \  |  |  /  |          
                  \  \/   | |  | |   /    \    | | | |  |  | /  /          
                 / \  \   | |__| |  /  /\  \   | |_| |  |  |/  /          
                |  |  |   |  __  | /  /__\  \  |    /   |      \           
                |  |  |   | |  | | |   __   |  |    \   |  |\   \          
                \     /   | |  | | |  |  |  |  | |\  \  |  | \   \       
                 \___/    |_|  |_| |__|  |__|  |_| \__\ |__|  \__/        
                                                                              
                      - O R C A' S   B I G   F R I E N D -                    
                                      &                                       
                       - I N T E G R A L  F E E D E R -                       
                                                                              
 v1 FN, 2020, v2 2021, v3 2022-2024                                           
------------------------------------------------------------------------------


----------------------
SHARK INTEGRAL PACKAGE
----------------------

Number of atoms                             ...     41
Number of basis functions                   ...    448
Number of shells                            ...    204
Maximum angular momentum                    ...      2
Integral batch strategy                     ... SHARK/LIBINT Hybrid
RI-J (if used) integral strategy            ... SPLIT-RIJ (Revised 2003 algorithm where possible)
Printlevel                                  ...      1
Contraction scheme used                     ... SEGMENTED contraction
Prescreening option                         ... SCHWARTZ
   Thresh                                   ... 2.500e-11
   Tcut                                     ... 2.500e-12
   Tpresel                                  ... 2.500e-12 
Coulomb Range Separation                    ... NOT USED
Exchange Range Separation                   ... NOT USED
Multipole approximations                    ... NOT USED
Finite Nucleus Model                        ... NOT USED
CABS basis                                  ... NOT available
Auxiliary Coulomb fitting basis             ... AVAILABLE
   # of basis functions in Aux-J            ...   1477
   # of shells in Aux-J                     ...    475
   Maximum angular momentum in Aux-J        ...      4
Auxiliary J/K fitting basis                 ... NOT available
Auxiliary Correlation fitting basis         ... NOT available
Auxiliary 'external' fitting basis          ... NOT available

Checking pre-screening integrals            ... done (  0.0 sec) Dimension = 204
   => SHARK Basis and OBASIS are compatible. Storing Pre-screening
Shell pair information
Shell pair cut-off parameter TPreSel        ...   2.5e-12
Total number of shell pairs                 ...     20910
Shell pairs after pre-screening             ...     12142
Total number of primitive shell pairs       ...     78208
Primitive shell pairs kept                  ...     28701
          la=0 lb=0:   3516 shell pairs
          la=1 lb=0:   4468 shell pairs
          la=1 lb=1:   1477 shell pairs
          la=2 lb=0:   1526 shell pairs
          la=2 lb=1:    986 shell pairs
          la=2 lb=2:    169 shell pairs

Checking whether 4 symmetric matrices of dimension 448 fit in memory
:Max Core in MB      =   3000.00
 MB in use           =     15.46
 MB left             =   2984.54
 MB needed           =      3.07
 Data fit in memory  = YES
Calculating RI/J V-Matrix + Cholesky decomp.... done (  0.1 sec)
Calculating Nuclear repulsion               ... done (  0.0 sec) ENN=   2226.720729107485 Eh

Diagonalization of the overlap matrix:
Smallest eigenvalue                        ... 2.535e-04
Time for diagonalization                   ...    0.011 sec
Threshold for overlap eigenvalues          ... 1.000e-07
Number of eigenvalues below threshold      ... 0
Time for construction of square roots      ...    0.010 sec
Total time needed                          ...    0.023 sec

-------------------
DFT GRID GENERATION
-------------------

General Integration Accuracy     IntAcc      ... 4.388
Radial Grid Type                 RadialGrid  ... OptM3 with GC (2021)
Angular Grid (max. ang.)         AngularGrid ... 4 (Lebedev-302)
Angular grid pruning method      GridPruning ... 4 (adaptive)
Weight generation scheme         WeightScheme... mBecke (2022)
Basis function cutoff            BFCut       ... 1.0000e-11
Integration weight cutoff        WCut        ... 1.0000e-14
Partially contracted basis set               ... off
Rotationally invariant grid construction     ... off
Angular grids for H and He will be reduced by one unit

Total number of grid points                  ...   206781
Total number of batches                      ...     3251
Average number of points per batch           ...       63
Average number of grid points per atom       ...     5043

--------------------
COSX GRID GENERATION
--------------------

GRIDX 1
-------
General Integration Accuracy     IntAcc      ... 3.816
Radial Grid Type                 RadialGrid  ... OptM3 with GC (2021)
Angular Grid (max. ang.)         AngularGrid ... 1 (Lebedev-50)
Angular grid pruning method      GridPruning ... 4 (adaptive)
Weight generation scheme         WeightScheme... mBecke (2022)
Basis function cutoff            BFCut       ... 1.0000e-11
Integration weight cutoff        WCut        ... 1.0000e-14
Partially contracted basis set               ... on
Rotationally invariant grid construction     ... off
Angular grids for H and He will be reduced by one unit

Total number of grid points                  ...    26203
Total number of batches                      ...      226
Average number of points per batch           ...      115
Average number of grid points per atom       ...      639
UseSFitting                                  ... on

GRIDX 2
-------
General Integration Accuracy     IntAcc      ... 4.020
Radial Grid Type                 RadialGrid  ... OptM3 with GC (2021)
Angular Grid (max. ang.)         AngularGrid ... 2 (Lebedev-110)
Angular grid pruning method      GridPruning ... 4 (adaptive)
Weight generation scheme         WeightScheme... mBecke (2022)
Basis function cutoff            BFCut       ... 1.0000e-11
Integration weight cutoff        WCut        ... 1.0000e-14
Partially contracted basis set               ... on
Rotationally invariant grid construction     ... off
Angular grids for H and He will be reduced by one unit

Total number of grid points                  ...    58199
Total number of batches                      ...      475
Average number of points per batch           ...      122
Average number of grid points per atom       ...     1419
UseSFitting                                  ... on

GRIDX 3
-------
General Integration Accuracy     IntAcc      ... 4.338
Radial Grid Type                 RadialGrid  ... OptM3 with GC (2021)
Angular Grid (max. ang.)         AngularGrid ... 3 (Lebedev-194)
Angular grid pruning method      GridPruning ... 4 (adaptive)
Weight generation scheme         WeightScheme... mBecke (2022)
Basis function cutoff            BFCut       ... 1.0000e-11
Integration weight cutoff        WCut        ... 1.0000e-14
Partially contracted basis set               ... on
Rotationally invariant grid construction     ... off
Angular grids for H and He will be reduced by one unit

Total number of grid points                  ...   127774
Total number of batches                      ...     1021
Average number of points per batch           ...      125
Average number of grid points per atom       ...     3116
UseSFitting                                  ... on
Grids setup in   1.5 sec
Initializing property integral containers    ... done (  0.0 sec)

SHARK setup successfully completed in   1.7 seconds

Maximum memory used throughout the entire STARTUP-calculation: 53.0 MB


           ************************************************************
           *        Program running with 8 parallel MPI-processes     *
           *              working on a common directory               *
           ************************************************************
-------------------------------------------------------------------------------
                                 ORCA GUESS
                   Start orbitals & Density for SCF / CASSCF
-------------------------------------------------------------------------------

------------
SCF SETTINGS
------------
Hamiltonian:
 Density Functional     Method          .... DFT(GTOs)
 Exchange Functional    Exchange        .... B88
   X-Alpha parameter    XAlpha          ....  0.666667
   Becke's b parameter  XBeta           ....  0.004200
 Correlation Functional Correlation     .... LYP
 LDA part of GGA corr.  LDAOpt          .... VWN-5
 Gradients option       PostSCFGGA      .... off
 Hybrid DFT is turned on
   Fraction HF Exchange ScalHFX         ....  0.200000
   Scaling of DF-GGA-X  ScalDFX         ....  0.720000
   Scaling of DF-GGA-C  ScalDFC         ....  0.810000
   Scaling of DF-LDA-C  ScalLDAC        ....  1.000000
   Perturbative correction              ....  0.000000
   NL short-range parameter             ....  4.800000
 RI-approximation to the Coulomb term is turned on
   Number of AuxJ basis functions       .... 1477
   RIJ-COSX (HFX calculated with COS-X)).... on


General Settings:
 Integral files         IntName         .... CMR_GOLD_079_sp_charge_clean
 Hartree-Fock type      HFTyp           .... RHF
 Total Charge           Charge          ....    0
 Multiplicity           Mult            ....    1
 Number of Electrons    NEL             ....  188
 Basis Dimension        Dim             ....  448
 Nuclear Repulsion      ENuc            ....   2226.7207291075 Eh

Convergence Acceleration:
 AO-DIIS                CNVDIIS         .... on
   Start iteration      DIISMaxIt       ....    12
   Startup error        DIISStart       ....  0.200000
   # of expansion vecs  DIISMaxEq       ....     5
   Bias factor          DIISBfac        ....   1.050
   Max. coefficient     DIISMaxC        ....  10.000
 MO-DIIS                CNVKDIIS        .... off
 Trust-Rad. Augm. Hess. CNVTRAH         .... auto
   Auto Start mean grad. ratio tolernc. ....  1.125000
   Auto Start start iteration           ....    50
   Auto Start num. interpolation iter.  ....    10
   Max. Number of Micro iterations      ....    24
   Max. Number of Macro iterations      .... Maxiter - #DIIS iter
   Number of Davidson start vectors     ....     2
   Converg. threshold    (grad. norm)   ....   1.000e-05
   Grad. Scal. Fac. for Micro threshold ....   0.100
   Minimum threshold for Micro iter.    ....   1.000e-02
   NR start threshold (gradient norm)   ....   1.000e-04
   Initial trust radius                 ....   0.400
   Minimum AH scaling param. (alpha)    ....   1.000
   Maximum AH scaling param. (alpha)    .... 1000.000
   Quad. conv. algorithm                .... NR
   White noise on init. David. guess    .... on
   Maximum white noise                  ....   0.010
   Pseudo random numbers                .... off
   Inactive MOs                         .... canonical
   Orbital update algorithm             .... Taylor
   Preconditioner                       .... Diag
   Full preconditioner red. dimension   ....   250
 SOSCF                 CNVSOSCF           .... on
   Start iteration     SOSCFMaxIt         ....   150
   Startup grad/error  SOSCFStart         ....  0.003300
   Hessian update      SOSCFHessUp        .... L-BFGS
   Autom. constraints  SOSCFAutoConstrain .... off
 Level Shifting         CNVShift        .... on
   Level shift para.    LevelShift      ....    0.2500
   Turn off err/grad.   ShiftErr        ....    0.0010
 Zerner damping         CNVZerner       .... off
 Static damping         CNVDamp         .... on
   Fraction old density DampFac         ....    0.7000
   Max. Damping (<1)    DampMax         ....    0.9800
   Min. Damping (>=0)   DampMin         ....    0.0000
   Turn off err/grad.   DampErr         ....    0.1000

SCF Procedure:
 Maximum # iterations   MaxIter         ....   125
 SCF integral mode      SCFMode         .... Direct
   Integral package                     .... SHARK and LIBINT hybrid scheme
 Reset frequency        DirectResetFreq ....    20
 Integral Threshold     Thresh          ....  2.500e-11 Eh
 Primitive CutOff       TCut            ....  2.500e-12 Eh

Convergence Tolerance:
 Convergence Check Mode ConvCheckMode   .... Total+1el-Energy
 Convergence forced     ConvForced      .... 0
 Energy Change          TolE            ....  1.000e-08 Eh
 1-El. energy change                    ....  1.000e-05 Eh
 Orbital Gradient       TolG            ....  1.000e-05
 Orbital Rotation angle TolX            ....  1.000e-05
 DIIS Error             TolErr          ....  5.000e-07

------------------------------
INITIAL GUESS: MODEL POTENTIAL
------------------------------
Loading Hartree-Fock densities                     ... done
Calculating cut-offs                               ... done
Initializing the effective Hamiltonian             ... done
Setting up the integral package (SHARK)            ... done
Starting the Coulomb interaction                   ... done (   0.1 sec)
Making the grid                                    ... done (   0.2 sec)
Mapping shells                                     ... done
Starting the XC term evaluation                    ... done (   0.1 sec)
  promolecular density results
     # of electrons  =    187.999769684
     EX              =   -161.007097628
     EC              =     -6.523505259
     EX+EC           =   -167.530602887
Transforming the Hamiltonian                       ... done (   0.0 sec)
Diagonalizing the Hamiltonian                      ... done (   0.0 sec)
Back transforming the eigenvectors                 ... done (   0.0 sec)
Now organizing SCF variables                       ... done
                      ------------------
                      INITIAL GUESS DONE (   0.5 sec)
                      ------------------
             **** ENERGY FILE WAS UPDATED (CMR_GOLD_079_sp_charge_clean.en.tmp) ****
Finished Guess after   0.6 sec
Maximum memory used throughout the entire GUESS-calculation: 21.1 MB


           ************************************************************
           *        Program running with 8 parallel MPI-processes     *
           *              working on a common directory               *
           ************************************************************

-------------------------------------------------------------------------------------------
                                      ORCA LEAN-SCF
                              memory conserving SCF solver
-------------------------------------------------------------------------------------------

--------------------
CPCM SOLVATION MODEL
--------------------
CPCM parameters:
  Epsilon                                         ...      80.1510
  Refrac                                          ...       1.3328
  Rsolv                                           ...       1.3000
  Surface type                                    ... GAUSSIAN VDW
  Discretization scheme                           ... Constant charge density
    Threshold for H atoms                         ...       5.0000 (charges/Ang^2)
    Threshold for non-H atoms                     ...       5.0000 (charges/Ang^2)
  Epsilon function type                           ...         CPCM
Solvent:                                          ... WATER
Radii:
  Scheme                                          ... Element-dependent radii
  Radius for O  used is    3.4469 Bohr (=   1.8240 Ang.)
  Radius for C  used is    3.8550 Bohr (=   2.0400 Ang.)
  Radius for N  used is    3.5149 Bohr (=   1.8600 Ang.)
  Radius for H  used is    2.4944 Bohr (=   1.3200 Ang.)
Calculating surface                               ...        done! (  0.0s)
Cavity surface points                             ...         3629
Cavity Volume                                     ...    2700.5469
Cavity Surface-area                               ...    1365.3933
Calculating surface distance matrix               ...        done! (  0.1s)
Performing Cholesky decomposition & store         ...        done! (  0.2s)
Overall time for CPCM initialization              ...                 0.3s

----------------------------------------D-I-I-S--------------------------------------------
Iteration    Energy (Eh)           Delta-E    RMSDP     MaxDP     DIISErr   Damp  Time(sec)
-------------------------------------------------------------------------------------------
               ***  Starting incremental Fock matrix formation  ***
    1    -1250.2339467570977831     0.00e+00  6.66e-03  9.51e-02  2.65e-01  0.700   2.4
    2    -1250.4871991600957699    -2.53e-01  4.38e-03  5.25e-02  1.01e-01  0.700   1.4
                               ***Turning on AO-DIIS***
    3    -1250.5839891257992349    -9.68e-02  1.96e-03  2.35e-02  3.02e-02  0.700   1.7
    4    -1250.6446536626053785    -6.07e-02  3.59e-03  3.58e-02  1.54e-02  0.000   2.1
    5    -1250.7780334194517309    -1.33e-01  5.49e-04  8.30e-03  5.43e-03  0.000   2.2
                              *** Initializing SOSCF ***
---------------------------------------S-O-S-C-F--------------------------------------
Iteration    Energy (Eh)           Delta-E    RMSDP     MaxDP     MaxGrad    Time(sec)
--------------------------------------------------------------------------------------
    6    -1250.7788146299544678    -7.81e-04  1.85e-04  1.78e-03  1.66e-03     2.0
               *** Restarting incremental Fock matrix formation ***
    7    -1250.7788881983979081    -7.36e-05  1.70e-04  3.15e-03  3.90e-04     3.7
    8    -1250.7788619124326033     2.63e-05  9.81e-05  2.15e-03  7.48e-04     2.7
    9    -1250.7789032498617416    -4.13e-05  2.38e-05  3.89e-04  4.68e-05     2.7
   10    -1250.7789030025010106     2.47e-07  1.27e-05  2.02e-04  7.08e-05     2.2
   11    -1250.7789036300159751    -6.28e-07  5.16e-06  5.97e-05  1.34e-05     2.2
   12    -1250.7789036513722749    -2.14e-08  2.97e-06  3.23e-05  1.45e-05     2.0
   13    -1250.7789036579706590    -6.60e-09  1.23e-06  1.90e-05  3.18e-06     1.8
                 **** Energy Check signals convergence ****

               *****************************************************
               *                     SUCCESS                       *
               *           SCF CONVERGED AFTER  13 CYCLES          *
               *****************************************************

Recomputing exchange energy using gridx3       ... done (    5.503 sec)
Old exchange energy                            :    -32.515937889 Eh
New exchange energy                            :    -32.515945893 Eh
Exchange energy change after final integration :     -0.000008004 Eh
Total energy after final integration           :  -1250.778911657 Eh
             **** ENERGY FILE WAS UPDATED (CMR_GOLD_079_sp_charge_clean.en.tmp) ****

----------------
TOTAL SCF ENERGY
----------------

Total Energy       :      -1250.77891165722485 Eh          -34035.42451 eV

Components:
Nuclear Repulsion  :       2226.72072910748466 Eh           60592.15148 eV
Electronic Energy  :      -3477.46732485014354 Eh          -94626.69664 eV
One Electron Energy:      -6126.63584410845579 Eh         -166714.23691 eV
Two Electron Energy:       2649.16851925831224 Eh           72087.54027 eV
CPCM Dielectric    :         -0.03230791082574 Eh              -0.87914 eV

Virial components:
Potential Energy   :      -2490.11342663383039 Eh          -67759.43116 eV
Kinetic Energy     :       1239.33451497660576 Eh           33724.00665 eV
Virial Ratio       :          2.00923430804381

DFT components:
N(Alpha)           :       94.000009319456 electrons
N(Beta)            :       94.000009319456 electrons
N(Total)           :      188.000018638913 electrons
E(X)               :     -129.356143554905 Eh       
E(C)               :       -7.665350782955 Eh       
E(XC)              :     -137.021494337859 Eh       

CPCM Solvation Model Properties:
Surface-charge          :         -0.02582579660963
Corrected charge        :         -0.00000000000000
Outlying charge corr.   :          0.00003217900608 Eh               0.00088 eV
Free-energy (cav+disp)  :  This term is not implemented in the current solvation scheme

---------------
SCF CONVERGENCE
---------------

  Last Energy change         ...    6.5984e-09  Tolerance :   1.0000e-08
  Last MAX-Density change    ...    1.8986e-05  Tolerance :   1.0000e-07
  Last RMS-Density change    ...    1.2295e-06  Tolerance :   5.0000e-09
  Last DIIS Error            ...    1.6645e-03  Tolerance :   5.0000e-07
  Last Orbital Gradient      ...    3.1832e-06  Tolerance :   1.0000e-05
  Last Orbital Rotation      ...    9.1672e-06  Tolerance :   1.0000e-05


----------------
ORBITAL ENERGIES
----------------

  NO   OCC          E(Eh)            E(eV) 
   0   2.0000     -19.215523      -522.8810 
   1   2.0000     -19.146583      -521.0050 
   2   2.0000     -19.136462      -520.7296 
   3   2.0000     -19.120680      -520.3002 
   4   2.0000     -14.433966      -392.7682 
   5   2.0000     -14.385717      -391.4553 
   6   2.0000     -14.360296      -390.7635 
   7   2.0000     -14.354566      -390.6076 
   8   2.0000     -10.342090      -281.4226 
   9   2.0000     -10.301915      -280.3294 
  10   2.0000     -10.275762      -279.6177 
  11   2.0000     -10.263143      -279.2743 
  12   2.0000     -10.257448      -279.1194 
  13   2.0000     -10.234611      -278.4979 
  14   2.0000     -10.233660      -278.4720 
  15   2.0000     -10.232466      -278.4396 
  16   2.0000     -10.219698      -278.0921 
  17   2.0000     -10.218184      -278.0509 
  18   2.0000     -10.208830      -277.7964 
  19   2.0000     -10.208238      -277.7803 
  20   2.0000     -10.204825      -277.6874 
  21   2.0000     -10.201838      -277.6061 
  22   2.0000     -10.200416      -277.5674 
  23   2.0000     -10.200372      -277.5662 
  24   2.0000     -10.197801      -277.4963 
  25   2.0000     -10.186555      -277.1903 
  26   2.0000     -10.186521      -277.1893 
  27   2.0000      -1.128505       -30.7082 
  28   2.0000      -1.103061       -30.0158 
  29   2.0000      -1.056563       -28.7505 
  30   2.0000      -1.037811       -28.2403 
  31   2.0000      -1.027296       -27.9541 
  32   2.0000      -0.934358       -25.4252 
  33   2.0000      -0.922724       -25.1086 
  34   2.0000      -0.872505       -23.7421 
  35   2.0000      -0.848165       -23.0798 
  36   2.0000      -0.827912       -22.5286 
  37   2.0000      -0.812605       -22.1121 
  38   2.0000      -0.767638       -20.8885 
  39   2.0000      -0.763805       -20.7842 
  40   2.0000      -0.756958       -20.5979 
  41   2.0000      -0.733920       -19.9710 
  42   2.0000      -0.714304       -19.4372 
  43   2.0000      -0.687731       -18.7141 
  44   2.0000      -0.666266       -18.1300 
  45   2.0000      -0.643650       -17.5146 
  46   2.0000      -0.633312       -17.2333 
  47   2.0000      -0.618195       -16.8219 
  48   2.0000      -0.611902       -16.6507 
  49   2.0000      -0.601338       -16.3632 
  50   2.0000      -0.593987       -16.1632 
  51   2.0000      -0.571313       -15.5462 
  52   2.0000      -0.557295       -15.1648 
  53   2.0000      -0.553191       -15.0531 
  54   2.0000      -0.515742       -14.0341 
  55   2.0000      -0.513126       -13.9629 
  56   2.0000      -0.506109       -13.7719 
  57   2.0000      -0.501451       -13.6452 
  58   2.0000      -0.494530       -13.4568 
  59   2.0000      -0.482011       -13.1162 
  60   2.0000      -0.476473       -12.9655 
  61   2.0000      -0.469740       -12.7823 
  62   2.0000      -0.463934       -12.6243 
  63   2.0000      -0.462703       -12.5908 
  64   2.0000      -0.461351       -12.5540 
  65   2.0000      -0.453961       -12.3529 
  66   2.0000      -0.451688       -12.2911 
  67   2.0000      -0.436211       -11.8699 
  68   2.0000      -0.435482       -11.8501 
  69   2.0000      -0.427153       -11.6234 
  70   2.0000      -0.422791       -11.5047 
  71   2.0000      -0.404227       -10.9996 
  72   2.0000      -0.401762       -10.9325 
  73   2.0000      -0.393947       -10.7198 
  74   2.0000      -0.393100       -10.6968 
  75   2.0000      -0.388119       -10.5612 
  76   2.0000      -0.379806       -10.3351 
  77   2.0000      -0.375413       -10.2155 
  78   2.0000      -0.372650       -10.1403 
  79   2.0000      -0.357390        -9.7251 
  80   2.0000      -0.347886        -9.4665 
  81   2.0000      -0.347621        -9.4592 
  82   2.0000      -0.341808        -9.3011 
  83   2.0000      -0.341477        -9.2921 
  84   2.0000      -0.310488        -8.4488 
  85   2.0000      -0.303955        -8.2710 
  86   2.0000      -0.283894        -7.7251 
  87   2.0000      -0.281803        -7.6683 
  88   2.0000      -0.274231        -7.4622 
  89   2.0000      -0.268904        -7.3172 
  90   2.0000      -0.261081        -7.1044 
  91   2.0000      -0.259337        -7.0569 
  92   2.0000      -0.242410        -6.5963 
  93   2.0000      -0.227524        -6.1912 
  94   0.0000      -0.085789        -2.3344 
  95   0.0000      -0.047617        -1.2957 
  96   0.0000      -0.027616        -0.7515 
  97   0.0000      -0.012962        -0.3527 
  98   0.0000      -0.008143        -0.2216 
  99   0.0000       0.000151         0.0041 
 100   0.0000       0.028996         0.7890 
 101   0.0000       0.052771         1.4360 
 102   0.0000       0.066195         1.8013 
 103   0.0000       0.069802         1.8994 
 104   0.0000       0.077708         2.1145 
*Only the first 10 virtual orbitals were printed.

                    ********************************
                    * MULLIKEN POPULATION ANALYSIS *
                    ********************************

-----------------------
MULLIKEN ATOMIC CHARGES
-----------------------
   0 O :   -0.373752
   1 C :    0.155998
   2 N :   -0.141646
   3 C :    0.313229
   4 C :   -0.121088
   5 C :    0.082845
   6 N :   -0.110546
   7 C :    0.033942
   8 C :    0.237921
   9 O :   -0.221335
  10 C :    0.074198
  11 C :    0.019596
  12 C :    0.182261
  13 O :   -0.231695
  14 C :   -0.025679
  15 C :    0.020253
  16 C :    0.024207
  17 C :   -0.021799
  18 N :   -0.084650
  19 N :   -0.171166
  20 C :   -0.021942
  21 C :   -0.033866
  22 C :   -0.011576
  23 C :    0.026814
  24 C :   -0.058487
  25 C :    0.122226
  26 O :   -0.218839
  27 H :    0.162542
  28 H :    0.024065
  29 H :    0.027321
  30 H :    0.037997
  31 H :    0.028859
  32 H :    0.010053
  33 H :    0.025485
  34 H :    0.017021
  35 H :    0.014291
  36 H :    0.004417
  37 H :    0.001889
  38 H :    0.012533
  39 H :   -0.009143
  40 H :    0.197248
Sum of atomic charges:   -0.0000000

--------------------------------
MULLIKEN REDUCED ORBITAL CHARGES
--------------------------------
  0 O s       :     3.767427  s :     3.767427
      pz      :     1.322289  p :     4.591388
      px      :     1.618709
      py      :     1.650390
      dz2     :     0.006002  d :     0.014937
      dxz     :     0.004437
      dyz     :     0.003217
      dx2y2   :     0.000598
      dxy     :     0.000683

  1 C s       :     3.072690  s :     3.072690
      pz      :     0.892021  p :     2.659008
      px      :     0.880422
      py      :     0.886565
      dz2     :     0.027071  d :     0.112304
      dxz     :     0.030807
      dyz     :     0.033561
      dx2y2   :     0.011777
      dxy     :     0.009088

  2 N s       :     3.348254  s :     3.348254
      pz      :     1.070935  p :     3.773007
      px      :     1.373834
      py      :     1.328238
      dz2     :     0.004883  d :     0.020384
      dxz     :     0.003592
      dyz     :     0.004753
      dx2y2   :     0.003677
      dxy     :     0.003481

  3 C s       :     2.863718  s :     2.863718
      pz      :     0.991888  p :     2.774933
      px      :     0.843586
      py      :     0.939460
      dz2     :     0.008037  d :     0.048120
      dxz     :     0.005454
      dyz     :     0.008595
      dx2y2   :     0.012287
      dxy     :     0.013747

  4 C s       :     3.120964  s :     3.120964
      pz      :     0.958678  p :     2.944379
      px      :     0.976100
      py      :     1.009600
      dz2     :     0.011199  d :     0.055746
      dxz     :     0.016577
      dyz     :     0.008240
      dx2y2   :     0.010067
      dxy     :     0.009663

  5 C s       :     3.226952  s :     3.226952
      pz      :     0.882674  p :     2.644005
      px      :     0.802921
      py      :     0.958410
      dz2     :     0.008361  d :     0.046199
      dxz     :     0.011276
      dyz     :     0.006764
      dx2y2   :     0.012188
      dxy     :     0.007610

  6 N s       :     3.377081  s :     3.377081
      pz      :     1.210813  p :     3.691099
      px      :     1.155259
      py      :     1.325027
      dz2     :     0.009831  d :     0.042367
      dxz     :     0.009202
      dyz     :     0.007835
      dx2y2   :     0.007376
      dxy     :     0.008123

  7 C s       :     3.054681  s :     3.054681
      pz      :     0.929916  p :     2.860956
      px      :     0.934355
      py      :     0.996685
      dz2     :     0.013571  d :     0.050422
      dxz     :     0.010500
      dyz     :     0.007190
      dx2y2   :     0.009082
      dxy     :     0.010078

  8 C s       :     3.011717  s :     3.011717
      pz      :     0.983545  p :     2.620522
      px      :     0.809865
      py      :     0.827112
      dz2     :     0.037829  d :     0.129840
      dxz     :     0.024893
      dyz     :     0.019449
      dx2y2   :     0.022882
      dxy     :     0.024787

  9 O s       :     3.705998  s :     3.705998
      pz      :     1.568507  p :     4.497319
      px      :     1.457878
      py      :     1.470933
      dz2     :     0.003199  d :     0.018018
      dxz     :     0.005175
      dyz     :     0.003756
      dx2y2   :     0.003083
      dxy     :     0.002805

 10 C s       :     3.294663  s :     3.294663
      pz      :     0.802133  p :     2.596313
      px      :     0.901583
      py      :     0.892597
      dz2     :     0.007487  d :     0.034825
      dxz     :     0.008177
      dyz     :     0.006123
      dx2y2   :     0.007636
      dxy     :     0.005402

 11 C s       :     3.076606  s :     3.076606
      pz      :     0.966404  p :     2.862387
      px      :     0.919007
      py      :     0.976977
      dz2     :     0.011913  d :     0.041411
      dxz     :     0.009142
      dyz     :     0.007652
      dx2y2   :     0.006275
      dxy     :     0.006428

 12 C s       :     3.003518  s :     3.003518
      pz      :     0.959934  p :     2.742537
      px      :     0.857659
      py      :     0.924943
      dz2     :     0.015203  d :     0.071683
      dxz     :     0.019288
      dyz     :     0.014182
      dx2y2   :     0.012078
      dxy     :     0.010932

 13 O s       :     3.708096  s :     3.708096
      pz      :     1.640477  p :     4.507233
      px      :     1.356789
      py      :     1.509967
      dz2     :     0.002350  d :     0.016366
      dxz     :     0.004947
      dyz     :     0.003484
      dx2y2   :     0.002873
      dxy     :     0.002712

 14 C s       :     3.280505  s :     3.280505
      pz      :     0.772639  p :     2.712402
      px      :     0.957087
      py      :     0.982676
      dz2     :     0.008568  d :     0.032773
      dxz     :     0.007619
      dyz     :     0.005263
      dx2y2   :     0.005832
      dxy     :     0.005491

 15 C s       :     3.181948  s :     3.181948
      pz      :     0.928904  p :     2.762715
      px      :     0.910185
      py      :     0.923625
      dz2     :     0.009378  d :     0.035084
      dxz     :     0.009899
      dyz     :     0.007981
      dx2y2   :     0.003452
      dxy     :     0.004374

 16 C s       :     3.176066  s :     3.176066
      pz      :     0.906367  p :     2.765452
      px      :     0.909930
      py      :     0.949155
      dz2     :     0.009188  d :     0.034275
      dxz     :     0.009576
      dyz     :     0.007316
      dx2y2   :     0.003826
      dxy     :     0.004370

 17 C s       :     3.264091  s :     3.264091
      pz      :     0.835641  p :     2.723244
      px      :     0.941561
      py      :     0.946043
      dz2     :     0.008836  d :     0.034465
      dxz     :     0.008006
      dyz     :     0.005534
      dx2y2   :     0.006584
      dxy     :     0.005505

 18 N s       :     3.680281  s :     3.680281
      pz      :     1.016559  p :     3.355683
      px      :     1.275591
      py      :     1.063533
      dz2     :     0.012276  d :     0.048686
      dxz     :     0.008655
      dyz     :     0.008680
      dx2y2   :     0.009973
      dxy     :     0.009102

 19 N s       :     3.598324  s :     3.598324
      pz      :     1.367816  p :     3.533232
      px      :     0.944331
      py      :     1.221086
      dz2     :     0.007035  d :     0.039610
      dxz     :     0.010626
      dyz     :     0.005497
      dx2y2   :     0.006624
      dxy     :     0.009828

 20 C s       :     3.088224  s :     3.088224
      pz      :     0.872444  p :     2.898025
      px      :     1.006605
      py      :     1.018976
      dz2     :     0.008642  d :     0.035694
      dxz     :     0.007940
      dyz     :     0.009235
      dx2y2   :     0.004153
      dxy     :     0.005724

 21 C s       :     3.241280  s :     3.241280
      pz      :     0.914225  p :     2.757229
      px      :     0.945098
      py      :     0.897906
      dz2     :     0.007978  d :     0.035358
      dxz     :     0.007605
      dyz     :     0.009192
      dx2y2   :     0.005878
      dxy     :     0.004704

 22 C s       :     3.178015  s :     3.178015
      pz      :     0.843612  p :     2.799444
      px      :     0.975705
      py      :     0.980127
      dz2     :     0.008291  d :     0.034116
      dxz     :     0.006608
      dyz     :     0.007359
      dx2y2   :     0.006011
      dxy     :     0.005847

 23 C s       :     3.181481  s :     3.181481
      pz      :     0.945680  p :     2.755808
      px      :     0.904768
      py      :     0.905360
      dz2     :     0.010171  d :     0.035898
      dxz     :     0.008171
      dyz     :     0.008934
      dx2y2   :     0.003266
      dxy     :     0.005355

 24 C s       :     3.275055  s :     3.275055
      pz      :     0.824838  p :     2.751665
      px      :     0.991269
      py      :     0.935558
      dz2     :     0.007806  d :     0.031766
      dxz     :     0.006453
      dyz     :     0.008387
      dx2y2   :     0.004161
      dxy     :     0.004959

 25 C s       :     3.024040  s :     3.024040
      pz      :     0.852914  p :     2.775374
      px      :     0.934967
      py      :     0.987493
      dz2     :     0.023001  d :     0.078360
      dxz     :     0.019630
      dyz     :     0.019461
      dx2y2   :     0.008548
      dxy     :     0.007721

 26 O s       :     3.657958  s :     3.657958
      pz      :     1.404543  p :     4.546919
      px      :     1.559426
      py      :     1.582949
      dz2     :     0.005939  d :     0.013963
      dxz     :     0.002619
      dyz     :     0.002363
      dx2y2   :     0.000565
      dxy     :     0.002478

 27 H s       :     0.792964  s :     0.792964
      pz      :     0.025616  p :     0.044494
      px      :     0.009940
      py      :     0.008938

 28 H s       :     0.953883  s :     0.953883
      pz      :     0.009164  p :     0.022052
      px      :     0.003113
      py      :     0.009775

 29 H s       :     0.949995  s :     0.949995
      pz      :     0.013076  p :     0.022684
      px      :     0.003696
      py      :     0.005913

 30 H s       :     0.937307  s :     0.937307
      pz      :     0.013952  p :     0.024697
      px      :     0.004863
      py      :     0.005881

 31 H s       :     0.947433  s :     0.947433
      pz      :     0.016307  p :     0.023708
      px      :     0.003459
      py      :     0.003942

 32 H s       :     0.966722  s :     0.966722
      pz      :     0.015642  p :     0.023225
      px      :     0.003557
      py      :     0.004027

 33 H s       :     0.951572  s :     0.951572
      pz      :     0.005491  p :     0.022943
      px      :     0.009844
      py      :     0.007608

 34 H s       :     0.959947  s :     0.959947
      pz      :     0.006955  p :     0.023032
      px      :     0.009418
      py      :     0.006658

 35 H s       :     0.962504  s :     0.962504
      pz      :     0.015610  p :     0.023204
      px      :     0.003596
      py      :     0.003998

 36 H s       :     0.972119  s :     0.972119
      pz      :     0.009408  p :     0.023464
      px      :     0.005050
      py      :     0.009005

 37 H s       :     0.974973  s :     0.974973
      pz      :     0.013600  p :     0.023138
      px      :     0.005759
      py      :     0.003779

 38 H s       :     0.964685  s :     0.964685
      pz      :     0.004103  p :     0.022782
      px      :     0.009447
      py      :     0.009232

 39 H s       :     0.986139  s :     0.986139
      pz      :     0.008949  p :     0.023003
      px      :     0.005062
      py      :     0.008992

 40 H s       :     0.723187  s :     0.723187
      pz      :     0.013080  p :     0.079565
      px      :     0.029316
      py      :     0.037169



                     *******************************
                     * LOEWDIN POPULATION ANALYSIS *
                     *******************************

----------------------
LOEWDIN ATOMIC CHARGES
----------------------
   0 O :   -0.255483
   1 C :    0.098784
   2 N :    0.022323
   3 C :    0.052385
   4 C :   -0.081046
   5 C :    0.012280
   6 N :    0.108228
   7 C :   -0.041420
   8 C :    0.092298
   9 O :   -0.198076
  10 C :    0.057533
  11 C :   -0.057679
  12 C :    0.075489
  13 O :   -0.025696
  14 C :   -0.034798
  15 C :    0.005815
  16 C :   -0.026850
  17 C :    0.006348
  18 N :   -0.099237
  19 N :   -0.122436
  20 C :   -0.120564
  21 C :   -0.003825
  22 C :   -0.058228
  23 C :   -0.001642
  24 C :   -0.064840
  25 C :    0.069230
  26 O :   -0.071919
  27 H :    0.100760
  28 H :    0.044878
  29 H :    0.041533
  30 H :    0.039655
  31 H :    0.055503
  32 H :    0.048280
  33 H :    0.045222
  34 H :    0.042666
  35 H :    0.046221
  36 H :    0.038222
  37 H :    0.035398
  38 H :    0.039360
  39 H :    0.036657
  40 H :    0.048669

-------------------------------
LOEWDIN REDUCED ORBITAL CHARGES
-------------------------------
  0 O s       :     3.540966  s :     3.540966
      pz      :     1.432342  p :     4.687887
      px      :     1.621832
      py      :     1.633714
      dz2     :     0.012153  d :     0.026630
      dxz     :     0.007779
      dyz     :     0.004950
      dx2y2   :     0.000782
      dxy     :     0.000966

  1 C s       :     2.833301  s :     2.833301
      pz      :     0.969037  p :     2.812815
      px      :     0.922016
      py      :     0.921762
      dz2     :     0.064287  d :     0.255101
      dxz     :     0.069307
      dyz     :     0.076948
      dx2y2   :     0.023627
      dxy     :     0.020932

  2 N s       :     3.050297  s :     3.050297
      pz      :     1.175833  p :     3.875130
      px      :     1.357341
      py      :     1.341956
      dz2     :     0.014510  d :     0.052250
      dxz     :     0.009491
      dyz     :     0.012823
      dx2y2   :     0.006996
      dxy     :     0.008429

  3 C s       :     2.821688  s :     2.821688
      pz      :     1.079033  p :     3.009891
      px      :     0.946956
      py      :     0.983901
      dz2     :     0.020066  d :     0.116036
      dxz     :     0.011273
      dyz     :     0.021771
      dx2y2   :     0.029482
      dxy     :     0.033444

  4 C s       :     2.873526  s :     2.873526
      pz      :     1.014517  p :     3.071800
      px      :     1.021615
      py      :     1.035668
      dz2     :     0.027190  d :     0.135720
      dxz     :     0.042650
      dyz     :     0.020831
      dx2y2   :     0.023157
      dxy     :     0.021893

  5 C s       :     2.872183  s :     2.872183
      pz      :     1.049992  p :     2.998127
      px      :     0.926504
      py      :     1.021632
      dz2     :     0.019851  d :     0.117410
      dxz     :     0.030735
      dyz     :     0.017093
      dx2y2   :     0.030662
      dxy     :     0.019069

  6 N s       :     3.065290  s :     3.065290
      pz      :     1.211475  p :     3.731205
      px      :     1.214072
      py      :     1.305657
      dz2     :     0.022515  d :     0.095277
      dxz     :     0.021604
      dyz     :     0.017530
      dx2y2   :     0.016404
      dxy     :     0.017224

  7 C s       :     2.848527  s :     2.848527
      pz      :     1.045182  p :     3.063350
      px      :     0.998299
      py      :     1.019869
      dz2     :     0.037714  d :     0.129543
      dxz     :     0.029081
      dyz     :     0.019032
      dx2y2   :     0.018788
      dxy     :     0.024928

  8 C s       :     2.840330  s :     2.840330
      pz      :     1.034070  p :     2.776140
      px      :     0.880622
      py      :     0.861448
      dz2     :     0.088798  d :     0.291233
      dxz     :     0.058457
      dyz     :     0.042284
      dx2y2   :     0.044673
      dxy     :     0.057020

  9 O s       :     3.540584  s :     3.540584
      pz      :     1.621395  p :     4.626760
      px      :     1.514678
      py      :     1.490687
      dz2     :     0.004752  d :     0.030731
      dxz     :     0.010246
      dyz     :     0.006321
      dx2y2   :     0.004218
      dxy     :     0.005196

 10 C s       :     2.866672  s :     2.866672
      pz      :     1.061180  p :     2.985068
      px      :     0.988606
      py      :     0.935282
      dz2     :     0.022161  d :     0.090727
      dxz     :     0.022167
      dyz     :     0.014921
      dx2y2   :     0.016519
      dxy     :     0.014959

 11 C s       :     2.838933  s :     2.838933
      pz      :     1.053433  p :     3.108825
      px      :     1.032871
      py      :     1.022520
      dz2     :     0.034833  d :     0.109921
      dxz     :     0.026211
      dyz     :     0.019841
      dx2y2   :     0.012691
      dxy     :     0.016347

 12 C s       :     2.838081  s :     2.838081
      pz      :     1.019834  p :     2.918612
      px      :     0.935894
      py      :     0.962883
      dz2     :     0.039739  d :     0.167819
      dxz     :     0.046546
      dyz     :     0.032611
      dx2y2   :     0.024176
      dxy     :     0.024746

 13 O s       :     3.422762  s :     3.422762
      pz      :     1.652097  p :     4.570583
      px      :     1.397550
      py      :     1.520936
      dz2     :     0.004181  d :     0.032351
      dxz     :     0.009377
      dyz     :     0.005841
      dx2y2   :     0.005654
      dxy     :     0.007297

 14 C s       :     2.864054  s :     2.864054
      pz      :     1.046183  p :     3.083839
      px      :     1.027793
      py      :     1.009863
      dz2     :     0.023432  d :     0.086906
      dxz     :     0.021437
      dyz     :     0.013366
      dx2y2   :     0.012955
      dxy     :     0.015716

 15 C s       :     2.866177  s :     2.866177
      pz      :     1.060177  p :     3.038346
      px      :     1.007120
      py      :     0.971048
      dz2     :     0.026690  d :     0.089661
      dxz     :     0.026134
      dyz     :     0.019515
      dx2y2   :     0.006620
      dxy     :     0.010702

 16 C s       :     2.862684  s :     2.862684
      pz      :     1.052943  p :     3.075106
      px      :     1.022853
      py      :     0.999311
      dz2     :     0.026256  d :     0.089061
      dxz     :     0.025491
      dyz     :     0.018420
      dx2y2   :     0.007582
      dxy     :     0.011312

 17 C s       :     2.863478  s :     2.863478
      pz      :     1.043443  p :     3.040834
      px      :     1.013729
      py      :     0.983662
      dz2     :     0.023889  d :     0.089340
      dxz     :     0.021780
      dyz     :     0.013888
      dx2y2   :     0.014441
      dxy     :     0.015341

 18 N s       :     3.326617  s :     3.326617
      pz      :     1.143561  p :     3.672795
      px      :     1.401692
      py      :     1.127541
      dz2     :     0.026314  d :     0.099825
      dxz     :     0.015524
      dyz     :     0.022004
      dx2y2   :     0.017609
      dxy     :     0.018374

 19 N s       :     3.282068  s :     3.282068
      pz      :     1.418447  p :     3.759028
      px      :     1.081660
      py      :     1.258920
      dz2     :     0.013125  d :     0.081340
      dxz     :     0.023256
      dyz     :     0.007667
      dx2y2   :     0.014776
      dxy     :     0.022515

 20 C s       :     2.857265  s :     2.857265
      pz      :     1.061531  p :     3.164345
      px      :     1.053732
      py      :     1.049082
      dz2     :     0.025711  d :     0.098955
      dxz     :     0.022082
      dyz     :     0.026192
      dx2y2   :     0.009290
      dxy     :     0.015680

 21 C s       :     2.861448  s :     2.861448
      pz      :     1.032143  p :     3.050402
      px      :     1.004045
      py      :     1.014215
      dz2     :     0.021801  d :     0.091975
      dxz     :     0.020601
      dyz     :     0.023927
      dx2y2   :     0.012883
      dxy     :     0.012762

 22 C s       :     2.859794  s :     2.859794
      pz      :     1.037800  p :     3.109234
      px      :     1.031892
      py      :     1.039542
      dz2     :     0.021822  d :     0.089200
      dxz     :     0.016990
      dyz     :     0.020141
      dx2y2   :     0.013685
      dxy     :     0.016563

 23 C s       :     2.865917  s :     2.865917
      pz      :     1.056184  p :     3.043894
      px      :     0.984583
      py      :     1.003128
      dz2     :     0.027530  d :     0.091830
      dxz     :     0.020778
      dyz     :     0.023911
      dx2y2   :     0.006713
      dxy     :     0.012899

 24 C s       :     2.865888  s :     2.865888
      pz      :     1.052532  p :     3.113811
      px      :     1.031167
      py      :     1.030113
      dz2     :     0.022166  d :     0.085140
      dxz     :     0.017996
      dyz     :     0.022226
      dx2y2   :     0.009053
      dxy     :     0.013700

 25 C s       :     2.841108  s :     2.841108
      pz      :     0.915794  p :     2.911220
      px      :     0.974346
      py      :     1.021080
      dz2     :     0.053574  d :     0.178442
      dxz     :     0.042984
      dyz     :     0.045256
      dx2y2   :     0.017894
      dxy     :     0.018734

 26 O s       :     3.421007  s :     3.421007
      pz      :     1.457631  p :     4.624622
      px      :     1.565943
      py      :     1.601048
      dz2     :     0.011559  d :     0.026290
      dxz     :     0.004962
      dyz     :     0.003632
      dx2y2   :     0.000726
      dxy     :     0.005410

 27 H s       :     0.772567  s :     0.772567
      pz      :     0.068564  p :     0.126673
      px      :     0.031257
      py      :     0.026852

 28 H s       :     0.889554  s :     0.889554
      pz      :     0.026838  p :     0.065568
      px      :     0.009971
      py      :     0.028759

 29 H s       :     0.891526  s :     0.891526
      pz      :     0.038530  p :     0.066942
      px      :     0.012051
      py      :     0.016361

 30 H s       :     0.883008  s :     0.883008
      pz      :     0.042003  p :     0.077337
      px      :     0.016126
      py      :     0.019208

 31 H s       :     0.873614  s :     0.873614
      pz      :     0.047628  p :     0.070882
      px      :     0.010957
      py      :     0.012298

 32 H s       :     0.882198  s :     0.882198
      pz      :     0.044819  p :     0.069522
      px      :     0.011626
      py      :     0.013078

 33 H s       :     0.887151  s :     0.887151
      pz      :     0.016953  p :     0.067627
      px      :     0.028324
      py      :     0.022350

 34 H s       :     0.889409  s :     0.889409
      pz      :     0.020857  p :     0.067925
      px      :     0.027208
      py      :     0.019860

 35 H s       :     0.885386  s :     0.885386
      pz      :     0.044385  p :     0.068392
      px      :     0.011401
      py      :     0.012606

 36 H s       :     0.892870  s :     0.892870
      pz      :     0.026986  p :     0.068908
      px      :     0.015369
      py      :     0.026553

 37 H s       :     0.896423  s :     0.896423
      pz      :     0.038507  p :     0.068179
      px      :     0.017430
      py      :     0.012242

 38 H s       :     0.893705  s :     0.893705
      pz      :     0.012836  p :     0.066934
      px      :     0.027260
      py      :     0.026838

 39 H s       :     0.894149  s :     0.894149
      pz      :     0.026076  p :     0.069194
      px      :     0.016167
      py      :     0.026951

 40 H s       :     0.719477  s :     0.719477
      pz      :     0.033177  p :     0.231854
      px      :     0.084049
      py      :     0.114627



                      *****************************
                      * MAYER POPULATION ANALYSIS *
                      *****************************

  NA   - Mulliken gross atomic population
  ZA   - Total nuclear charge
  QA   - Mulliken gross atomic charge
  VA   - Mayer's total valence
  BVA  - Mayer's bonded valence
  FA   - Mayer's free valence

  ATOM       NA         ZA         QA         VA         BVA        FA
  0 O      8.3738     8.0000    -0.3738     2.1494     2.1494    -0.0000
  1 C      5.8440     6.0000     0.1560     4.1630     4.1630     0.0000
  2 N      7.1416     7.0000    -0.1416     3.3523     3.3523    -0.0000
  3 C      5.6868     6.0000     0.3132     3.9360     3.9360     0.0000
  4 C      6.1211     6.0000    -0.1211     4.0547     4.0547     0.0000
  5 C      5.9172     6.0000     0.0828     3.7889     3.7889    -0.0000
  6 N      7.1105     7.0000    -0.1105     3.4109     3.4109     0.0000
  7 C      5.9661     6.0000     0.0339     3.7320     3.7320    -0.0000
  8 C      5.7621     6.0000     0.2379     4.2837     4.2837    -0.0000
  9 O      8.2213     8.0000    -0.2213     2.3085     2.3085    -0.0000
 10 C      5.9258     6.0000     0.0742     3.7765     3.7765    -0.0000
 11 C      5.9804     6.0000     0.0196     3.8105     3.8105    -0.0000
 12 C      5.8177     6.0000     0.1823     3.8707     3.8707    -0.0000
 13 O      8.2317     8.0000    -0.2317     2.2799     2.2799     0.0000
 14 C      6.0257     6.0000    -0.0257     3.8288     3.8288    -0.0000
 15 C      5.9797     6.0000     0.0203     3.7997     3.7997     0.0000
 16 C      5.9758     6.0000     0.0242     3.7822     3.7822     0.0000
 17 C      6.0218     6.0000    -0.0218     3.8129     3.8129     0.0000
 18 N      7.0847     7.0000    -0.0847     2.7940     2.7940    -0.0000
 19 N      7.1712     7.0000    -0.1712     2.9782     2.9782     0.0000
 20 C      6.0219     6.0000    -0.0219     3.5568     3.5568     0.0000
 21 C      6.0339     6.0000    -0.0339     3.8556     3.8556    -0.0000
 22 C      6.0116     6.0000    -0.0116     3.8253     3.8253    -0.0000
 23 C      5.9732     6.0000     0.0268     3.7898     3.7898    -0.0000
 24 C      6.0585     6.0000    -0.0585     3.8141     3.8141     0.0000
 25 C      5.8778     6.0000     0.1222     4.0744     4.0744     0.0000
 26 O      8.2188     8.0000    -0.2188     2.2878     2.2878     0.0000
 27 H      0.8375     1.0000     0.1625     0.9852     0.9852     0.0000
 28 H      0.9759     1.0000     0.0241     1.0031     1.0031     0.0000
 29 H      0.9727     1.0000     0.0273     1.0072     1.0072     0.0000
 30 H      0.9620     1.0000     0.0380     1.0546     1.0546    -0.0000
 31 H      0.9711     1.0000     0.0289     1.0191     1.0191    -0.0000
 32 H      0.9899     1.0000     0.0101     0.9941     0.9941    -0.0000
 33 H      0.9745     1.0000     0.0255     0.9804     0.9804     0.0000
 34 H      0.9830     1.0000     0.0170     0.9808     0.9808    -0.0000
 35 H      0.9857     1.0000     0.0143     0.9877     0.9877     0.0000
 36 H      0.9956     1.0000     0.0044     0.9866     0.9866    -0.0000
 37 H      0.9981     1.0000     0.0019     0.9800     0.9800    -0.0000
 38 H      0.9875     1.0000     0.0125     0.9788     0.9788    -0.0000
 39 H      1.0091     1.0000    -0.0091     0.9960     0.9960    -0.0000
 40 H      0.8028     1.0000     0.1972     1.0843     1.0843    -0.0000

  Mayer bond orders larger than 0.100000
B(  0-O ,  1-C ) :   1.7296 B(  0-O , 40-H ) :   0.1916 B(  1-C ,  2-N ) :   1.3515 
B(  1-C , 20-C ) :   0.9577 B(  2-N ,  3-C ) :   1.0013 B(  2-N , 27-H ) :   0.9058 
B(  3-C ,  4-C ) :   1.0672 B(  3-C , 28-H ) :   0.9172 B(  3-C , 29-H ) :   0.9109 
B(  4-C ,  5-C ) :   1.4229 B(  4-C , 19-N ) :   1.4098 B(  5-C ,  6-N ) :   1.1906 
B(  5-C , 18-N ) :   0.1184 B(  5-C , 30-H ) :   0.9894 B(  6-N ,  7-C ) :   0.9604 
B(  6-N , 18-N ) :   1.1175 B(  7-C ,  8-C ) :   1.0241 B(  7-C , 10-C ) :   1.5674 
B(  8-C ,  9-O ) :   2.0964 B(  8-C , 13-O ) :   1.0836 B( 10-C , 11-C ) :   1.1221 
B( 10-C , 31-H ) :   0.9832 B( 11-C , 12-C ) :   1.2809 B( 11-C , 17-C ) :   1.2833 
B( 12-C , 13-O ) :   1.0649 B( 12-C , 14-C ) :   1.3626 B( 14-C , 15-C ) :   1.3732 
B( 14-C , 32-H ) :   0.9957 B( 15-C , 16-C ) :   1.3229 B( 15-C , 33-H ) :   0.9866 
B( 16-C , 17-C ) :   1.4056 B( 16-C , 34-H ) :   0.9907 B( 17-C , 35-H ) :   0.9955 
B( 18-N , 19-N ) :   1.4166 B( 20-C , 21-C ) :   1.3119 B( 20-C , 25-C ) :   1.2584 
B( 21-C , 22-C ) :   1.4268 B( 21-C , 36-H ) :   0.9857 B( 22-C , 23-C ) :   1.3190 
B( 22-C , 37-H ) :   0.9900 B( 23-C , 24-C ) :   1.3986 B( 23-C , 38-H ) :   0.9893 
B( 24-C , 25-C ) :   1.3210 B( 24-C , 39-H ) :   0.9925 B( 25-C , 26-O ) :   1.3256 
B( 26-O , 40-H ) :   0.8535 

-------
TIMINGS
-------

Total SCF time: 0 days 0 hours 0 min 36 sec 

Total time                  ....      36.892 sec
Sum of individual times     ....      35.227 sec  ( 95.5%)

SCF preparation             ....       0.469 sec  (  1.3%)
Fock matrix formation       ....      32.968 sec  ( 89.4%)
  Startup                   ....       0.059 sec  (  0.2% of F)
  Split-RI-J                ....       3.259 sec  (  9.9% of F)
  Chain of spheres X        ....      21.418 sec  ( 65.0% of F)
  XC integration            ....       4.155 sec  ( 12.6% of F)
    Basis function eval.    ....       1.215 sec  ( 29.2% of XC)
    Density eval.           ....       0.875 sec  ( 21.1% of XC)
    XC-Functional eval.     ....       0.103 sec  (  2.5% of XC)
    XC-Potential eval.      ....       0.934 sec  ( 22.5% of XC)
  CPCM terms                ....       5.164 sec  ( 15.7% of F)
Diagonalization             ....       0.000 sec  (  0.0%)
Density matrix formation    ....       0.391 sec  (  1.1%)
Total Energy calculation    ....       0.122 sec  (  0.3%)
Population analysis         ....       0.108 sec  (  0.3%)
Orbital Transformation      ....       0.094 sec  (  0.3%)
Orbital Orthonormalization  ....       0.000 sec  (  0.0%)
DIIS solution               ....       0.524 sec  (  1.4%)
SOSCF solution              ....       0.551 sec  (  1.5%)
Finished LeanSCF after  37.1 sec

Maximum memory used throughout the entire LEANSCF-calculation: 42.6 MB


-------------------------------------------------------------------------------
                          DFT DISPERSION CORRECTION                            
                                                                               
                              DFTD3 V3.1  Rev 1                                
                          USING Becke-Johnson damping                          
-------------------------------------------------------------------------------
The B3LYP functional is recognized
Active option DFTDOPT                   ...         4   

molecular C6(AA) [au] = 22114.383259 


            DFT-D V3
 parameters
 s6 scaling factor         :     1.0000 
 a1 scaling factor         :     0.3981 
 s8 scaling factor         :     1.9889 
 a2 scaling factor         :     4.4211 
 ad hoc parameters k1-k3   :    16.0000     1.3333    -4.0000 

 Edisp/kcal,au: -57.962263094945  -0.092368735944 
 E6   /kcal   : -27.055661421 
 E8   /kcal   : -30.906601674 
 % E8         :  53.321937453 

-------------------------   ----------------
Dispersion correction           -0.092368736
-------------------------   ----------------


-------------------------   --------------------
FINAL SINGLE POINT ENERGY     -1250.871280393169
-------------------------   --------------------



           ************************************************************
           *        Program running with 8 parallel MPI-processes     *
           *              working on a common directory               *
           ************************************************************

------------------------------------------------------------------------------
                              ORCA PROPERTY CALCULATIONS
------------------------------------------------------------------------------

GBWName                                 ... CMR_GOLD_079_sp_charge_clean.gbw
Number of atoms                         ...     41
Number of basis functions               ...    448
Max core memory                         ...   3000 MB

Electric properties:
Dipole moment                           ... YES
Quadrupole moment                       ...  NO
Static polarizability (Dipole/Dipole)   ...  NO
Static polarizability (Dipole/Quad.)    ...  NO
Static polarizability (Quad./Quad.)     ...  NO
Static polarizability (Velocity)        ...  NO
Static hyperpolarizability              ...  NO

Atomic electric properties:
Dipole moment                           ...  NO
Quadrupole moment                       ...  NO
Static polarizability                   ...  NO

Choice of electric origin               ... Center of mass
Position of electric origin             ...     0.264069    -0.296205    -0.380047

General magnetic properties:
Magnetizability                         ...  NO

EPR properties:
g-Tensor (aka g-matrix)                 ...  NO
Zero-Field splitting spin-orbit         ...  NO
Zero-field splitting spin-spin          ...  NO
Hyperfine couplings                     ...  NO (   0 nuclei)
Quadrupole couplings                    ...  NO (   0 nuclei)
Contact density                         ...  NO (   0 nuclei)

NMR properties:
Chemical shifts                         ...  NO (   0 nuclei)
Spin-rotation constants                 ...  NO (   0 nuclei)
Spin-spin couplings                     ...  NO (   0 nuclei,    0 pairs)

Choice of magnetic origin               ... GIAO
Position of magnetic origin             ...     0.000000     0.000000     0.000000

Properties with geometric perturbations:
SCF Hessian                             ...  NO
IR spectrum                             ...  NO
VCD spectrum                            ...  NO
X-ray spectroscopy properties:
SCF XES/XAS/RIXS spectra                ...  NO

SCF SOC stabilization energy            ...  NO
Diagonal Born-Oppenheimer correction    ...  NO

-------------
DIPOLE MOMENT
-------------

Method             : SCF
Type of density    : Electron Density
Multiplicity       :   1
Irrep              :   0
Energy             : -1250.7789116572248531 Eh
Basis              : AO
                                X                 Y                 Z
Electronic contribution:      7.998708027      -3.777073280      -5.075858428
Nuclear contribution   :     -6.512013695       5.171865429       7.178007921
                        -----------------------------------------
Total Dipole Moment    :      1.486694332       1.394792149       2.102149493
                        -----------------------------------------
Magnitude (a.u.)       :      2.928265300
Magnitude (Debye)      :      7.443058884



--------------------
Rotational spectrum 
--------------------
 
Rotational constants in cm-1:             0.012229             0.002574             0.002431 
Rotational constants in MHz :           366.602467            77.181431            72.891129 

Dipole components along the rotational axes: 
x,y,z [a.u.] :    -1.315904    -0.317135    -2.596644 
x,y,z [Debye]:    -3.344763    -0.806094    -6.600144 

 

Dipole moment calculation done in   0.0 sec 

Maximum memory used throughout the entire PROP-calculation: 22.3 MB

--------------------------------
SUGGESTED CITATIONS FOR THIS RUN
--------------------------------

Below you find a list of papers that are relevant to this ORCA run
We neither can nor want to force you to cite these papers, but we appreciate if you do
You receive ORCA, which is the product of decades of hard work by many enthusiastic individuals, for free
The only thing we kindly ask in return is that you cite our papers,
We deeply appreciate it, if you show your appreciation for ORCA by not just citing the generic ORCA reference.

Please note that relegating all ORCA citations to the supporting information does *not* help us.
SI sections are not indexed - citations you put there will not count into any citation statistics
But we need these citations in order to attract the funding resources that allow us to do what we are doing

Therefore, if you are a happy ORCA user, please consider citing a few of the papers listed below in the main body of your paper

In addition to the list printed below, the program has created the file CMR_GOLD_079_sp_charge_clean.bibtex that contains the list in bibtex format
You can import this file easily into all common literature databanks and citation aid programs

It goes without saying that in many instances, there are alternative algorithms to achieve similar
results as the ones you have gotten from ORCA. It is, of course, also the case that in some instances
ORCA just re-implements algorithms worked out by others. We are fully aware of that and we are also
fully appreciative of our colleagues work. Hence this citation list should not be read as indicating
that the listed papers, which are focused on our own work, are the only ones worth citing. It simply
meant to make it easier for users to cite ORCA specific papers. It is not a substitute for doing your
own literature research and citing the relevant literature in a scientifically appropriate manner.

List of essential papers. We consider these as the minimum necessary citations

  1. Neese, F.
     Software update: the ORCA program system, version 6.0
     WIRES Comput. Molec. Sci. 2025 15(1), e70019
     doi.org/10.1002/wcms.70019

List of papers to cite with high priority. The work reported in these papers was absolutely
necessary for this run to complete.
Our perspective: the developers of density functionals and basis sets usually get cited in chemistry papers
Good! But without the algorithms to do something with them, the functionals or basis sets would not do anything.
Hence, in our opinion, the algorithm design and method developments papers are equally worthy of getting cited

  1. Neese, F.
     An improvement of the resolution of the identity approximation for the formation of the Coulomb matrix
     J. Comp. Chem. 2003 24(14), 1740-1747
     doi.org/10.1002/jcc.10318
  2. Neese, F.; Wennmohs, F.; Hansen, A.; Becker, U.
     Efficient, approximate and parallel Hartree-Fock and hybrid DFT calculations. A 'chain-of-spheres' algorithm for the Hartree-Fock exchange
     Chem. Phys. 2009 356(1-3), 98-109
     doi.org/10.1016/j.chemphys.2008.10.036
  3. Grimme, S.; Antony, J.; Ehrlich, S.; Krieg, H.
     A consistent and accurate ab initio parametrization of density functional dispersion correction (DFT-D) for the 94 elements H-Pu
     J. Chem. Phys. 2010 132 , 154104
     doi.org/10.1063/1.3382344
  4. Grimme, S.; Ehrlich, S.; Goerigk, L.
     Effect of the damping function in dispersion corrected density functional theory
     J. Comput. Chem. 2011 32(7), 1456-1465
     doi.org/10.1002/jcc.21759
  5. Garcia-Rates, M.; Neese, F.
     Effect of the Solute Cavity on the Solvation Energy and its Derivatives within the Framework of the Gaussian Charge Scheme
     J. Comput. Chem. 2020 41 , 922-939
     doi.org/10.1002/jcc.26139
  6. Helmich-Paris, B.; de Souza, B.; Neese, F.; Izsák, R.
     An improved chain of spheres for exchange algorithm
     J. Chem. Phys. 2021 155(10), 104109
     doi.org/10.1063/5.0058766
  7. Neese, F.
     The SHARK Integral Generation and Digestion System
     J. Comp. Chem. 2022 44(3), 381
     doi.org/10.1002/jcc.26942

List of suggested additional citations. These are papers that are important in the 'surrounding' of 
of this run, or papers that preceded the highly important papers. If you like your results we are grateful for a citation.

  1. Izsak, R.; Neese, F.
     An overlap fitted chain of spheres exchange method
     J. Chem. Phys. 2011 135 , 144105
     doi.org/10.1063/1.3646921
  2. Izsak, R.; Hansen, A.; Neese, F.
     The resolution of identity and chain of spheres approximations for the LPNO-CCSD singles Fock term
     Molec. Phys. 2012 110 , 2413-2417
     doi.org/10.1080/00268976.2012.687466
  3. Neese, F.
     The ORCA program system
     WIRES Comput. Molec. Sci. 2012 2(1), 73-78
     doi.org/10.1002/wcms.81
  4. Izsak, R.; Neese, F.; Klopper, W.
     Robust fitting techniques in the chain of spheres approximation to the Fock exchange: The role of the complementary space
     J. Chem. Phys. 2013 139 , 
     doi.org/10.1063/1.4819264
  5. Neese, F.
     Software update: the ORCA program system, version 4.0
     WIRES Comput. Molec. Sci. 2018 8(1), 1-6
     doi.org/10.1002/wcms.1327
  6. Neese, F.; Wennmohs, F.; Becker, U.; Riplinger, C.
     The ORCA quantum chemistry program package
     J. Chem. Phys. 2020 152(22), 224108
     doi.org/10.1063/5.0004608
  7. Neese, F.
     Software update: The ORCA program system—Version 5.0
     WIRES Comput. Molec. Sci. 2022 12(1), e1606
     doi.org/10.1002/wcms.1606

List of optional additional citations

  1. Neese, F.
     Approximate second-order SCF convergence for spin unrestricted wavefunctions
     Chem. Phys. Lett. 2000 325(1-3), 93-98
     doi.org/10.1016/s0009-2614(00)00662-x

Timings for individual modules:

Sum of individual times          ...       39.970 sec (=   0.666 min)
Startup calculation              ...        1.849 sec (=   0.031 min)   4.6 %
SCF iterations                   ...       37.914 sec (=   0.632 min)  94.9 %
Property calculations            ...        0.207 sec (=   0.003 min)   0.5 %
                             ****ORCA TERMINATED NORMALLY****
TOTAL RUN TIME: 0 days 0 hours 0 minutes 40 seconds 373 msec
