
                                 *****************
                                 * O   R   C   A *
                                 *****************

                                            #,                                       
                                            ###                                      
                                            ####                                     
                                            #####                                    
                                            ######                                   
                                           ########,                                 
                                     ,,################,,,,,                         
                               ,,#################################,,                 
                          ,,##########################################,,             
                       ,#########################################, ''#####,          
                    ,#############################################,,   '####,        
                  ,##################################################,,,,####,       
                ,###########''''           ''''###############################       
              ,#####''   ,,,,##########,,,,          '''####'''          '####       
            ,##' ,,,,###########################,,,                        '##       
           ' ,,###''''                  '''############,,,                           
         ,,##''                                '''############,,,,        ,,,,,,###''
      ,#''                                            '''#######################'''  
     '                                                          ''''####''''         
             ,#######,   #######,   ,#######,      ##                                
            ,#'     '#,  ##    ##  ,#'     '#,    #''#        ,####,    ,#,          
            ##       ##  ##   ,#'  ##            #'  '#       #'       ,# #          
            ##       ##  #######   ##           ,######,      #####,      #          
            '#,     ,#'  ##    ##  '#,     ,#' ,#      #,     #,   #      #          
             '#######'   ##     ##  '#######'  #'      '#     '####' #    #          



                #########################################################
                #                        -***-                          #
                #          Department of theory and spectroscopy        #
                #                                                       #
                #                      Frank Neese                      #
                #                                                       #
                #     Directorship, Architecture, Infrastructure        #
                #                    SHARK, DRIVERS                     #
                #        Core code/Algorithms in most modules           #
                #                                                       #
                #        Max Planck Institute fuer Kohlenforschung      #
                #                Kaiser Wilhelm Platz 1                 #
                #                 D-45470 Muelheim/Ruhr                 #
                #                      Germany                          #
                #                                                       #
                #                  All rights reserved                  #
                #                        -***-                          #
                #########################################################


                         Program Version 6.1.1  -  RELEASE   -


 With contributions from (in alphabetic order):
[Max-Planck-Institut fuer Kohlenforschung]                               
  Daniel Aravena         : Magnetic Suceptibility                        
  Michael Atanasov       : Ab Initio Ligand Field Theory (pilot matlab implementation)
  Alexander A. Auer      : GIAO ZORA, VPT2 properties, NMR spectrum      
  Ute Becker             : All parallelization in ORCA, NUMFREQ, NUMCALC 
  Giovanni Bistoni       : ED, misc. LED, open-shell LED, HFLD           
  Dmytro Bykov           : pre 5.0 version of the SCF Hessian            
  Marcos Casanova-Páez   : Triplet and SCS-CIS(D). UHF-(DLPNO)-IP/EA/STEOM-CCSD. UHF-CVS-IP/STEOM-CCSD   
  Vijay G. Chilkuri      : MRCI spin determinant printing, contributions to CSF-ICE 
  Pauline Colinet        : FMM embedding                                 
  Dipayan Datta          : RHF DLPNO-CCSD density                        
  Achintya Kumar Dutta   : EOM-CC, STEOM-CC                              
  Nicolas Foglia         : Exact transition moments, OPA infrastructure, MCD improvements    
  Dmitry Ganyushin       : Spin-Orbit,Spin-Spin,Magnetic field MRCI      
  Miquel Garcia-Rates    : C-PCM and meta-GGA Hessian, CCSD/C-PCM, Gaussian charge scheme 
  Tiago L. C. Gouveia    : GS-ROHF, GS-ROCIS                             
  Yang Guo               : DLPNO-NEVPT2, F12-NEVPT2, CIM, IAO-localization        
  Andreas Hansen         : Spin unrestricted coupled pair/coupled cluster methods 
  Ingolf Harden          : AUTO-CI MPn and infrastructure                
  Benjamin Helmich-Paris : MC-RPA, TRAH-(SCF,CASSCF), AVAS, COSX integrals, SCF dyn. polar., MC-PDFT, srDFT 
  Lee Huntington         : MR-EOM, pCC                                   
  Robert Izsak           : Overlap fitted RIJCOSX, COSX-SCS-MP3, EOM     
  Riya Kayal             : Wick's Theorem for AUTO-CI, AUTO-CI UHF-CCSDT 
  Emily Kempfer          : AUTO-CI RHF CISDT and CCSDT, approximate NEVPT4
  Christian Kollmar      : KDIIS, OOCD, Brueckner-CCSD(T), CCSD density, CASPT2, CASPT2-K, improved NEVPT2 
  Axel Koslowski         : Symmetry handling                             
  Simone Kossmann        : meta-GGA functionals, TD-DFT gradient, OOMP2, (MP2 Hessian; deprecated post 5.0) 
  Lucas Lang             : DCDCAS, Hyperfine gauge corrections, ICE-SOC+SSC
  Marvin Lechner         : AUTO-CI (C++ implementation), FIC-MRCC        
  Spencer Leger          : CASSCF response                               
  Dagmar Lenk            : GEPOL surface, SMD, ORCA-2-JSON               
  Dimitrios Liakos       : Extrapolation schemes; Compound Job, Property file
  Dimitrios Manganas     : Further ROCIS development; embedding schemes. LFT, Crystal Embedding 
  Dimitrios Pantazis     : SARC Basis sets                               
  Anastasios Papadopoulos: AUTO-CI, single reference methods and gradients 
  Taras Petrenko         : pre 6.0 DFT Hessian and TD-DFT gradient,  ECA, NRVS 
  Petra Pikulova         : Analytic Raman intensities                    
  Peter Pinski           : DLPNO-MP2, DLPNO-MP2 Gradient                 
  Shashank Vittal Rao    : ES-AILFT, MagRelax                            
  Christoph Reimann      : Effective Core Potentials                     
  Marius Retegan         : Local ZFS, SOC                                
  Christoph Riplinger    : Optimizer, TS searches, QM/MM, DLPNO-CCSD(T), (RO)-DLPNO pert. Triples 
  Michael Roemelt        : Original ROCIS implementation, recursive CI coupling coefficients
  Masaaki Saitow         : Open-shell DLPNO-CCSD energy and density      
  Barbara Sandhoefer     : DKH picture change effects                    
  Yorick L. A. Schmerwitz: GMF and freeze-and-release deltaSCF, NEB S-IDPP initial path                    
  Kantharuban Sivalingam : CASSCF convergence/infrastructure, NEVPT2, NEVPT3, NEVPT4(SD), FIC-MRCI and CEPA variants
  Bernardo de Souza      : ESD, SOC TD-DFT                               
  Georgi L. Stoychev     : AutoAux, RI-MP2 NMR, DLPNO-MP2 response, X2C  
  Van Anh Tran           : RI-MP2 g-tensors                              
  Willem Van den Heuvel  : Paramagnetic NMR                              
  Zikuan Wang            : NOTCH, Electric field optimization            
  Frank Wennmohs         : Technical directorship and infrastructure     
  Hang Xu                : AUTO-CI-Response properties                   
                                                                         
[FACCTs GmbH]                                                            
  Markus Bursch, Nicolas Foglia, Miquel Garcia-Rates, Ingolf Harden, Hagen Neugebauer, Anastasios Papadopoulos, 
  Christoph Riplinger, Bernardo de Souza, Georgi L. Stoychev                                                    
                                                                 
  APM, various basis sets, CI-OPT, improved COSX, DLPNO-Multilevel,           
  DOCKER, DRACO, updates on ESD, Fragmentator, GOAT, IRC, LR-CPCM, L-BFGS, MBIS, meta-GGA TD-DFT gradient, ML-optimized integration grids, 
  MM, NACMEs, nearIR, NEB, NEB-TS, NL-DFT gradient (VV10), 2- and 3-layer-ONIOM, interface openCOSMO-RS, QMMM,   
  Crystal-QMMM, RESP, rigid body optimization, SF, symmetry and pop. for TD-DFT, various functionals, SOLVATOR                                   
                                                                         
[Other institutions]                                                     
  V. Asgeirsson          : NEB                                           
  Christoph Bannwarth    : sTDA-DFT, sTD-DFT, PBEh-3c, B97-3c, D3        
  Giovanni Bistoni       : ETS/NOCV, ADLD/ADEX, COVALED                  
  Martin Brehm           : Molecular dynamics                            
  Ronald Cardenas        : ETS/NOCV                                      
  Martina Colucci        : COVALED                                       
  Sebastian Ehlert       : rSCAN, r2SCAN, r2SCAN-3c, D4, dhf basis sets  
  Marvin Friede          : D4 for Fr, Ra, Ac-Lr                          
  Lars Goerigk           : TD-DFT with DH, B97 family of functionals     
  Stefan Grimme          : VdW corrections, initial TS optimization, DFT functionals, gCP, sTDA/sTD-DF 
  Waldemar Hujo          : DFT-NL                                        
  H. Jonsson             : NEB                                           
  Holger Kruse           : gCP                                           
  Marcel Mueller         : wB97X-3c, vDZP basis set                      
  Hagen Neugebauer       : wr2SCAN, Native XTB                           
  Gianluca Regni         : ADLD/ADEX                                     
  Tobias Risthaus        : pre 6.0 range-separated hybrid DFT and stability analysis
  Lukas Wittmann         : regularized MP2, r2SCAN double-hybrids, wr2SCAN        
                                                                         
We gratefully acknowledge several colleagues who have allowed us to      
interface, adapt or use parts of their codes:                            
  Ed Valeev, F. Pavosevic, A. Kumar             : LibInt (2-el integral package), F12 methods 
  Garnet Chan, S. Sharma, J. Yang, R. Olivares  : DMRG                   
  Ulf Ekstrom                                   : XCFun DFT Library      
  Mihaly Kallay                                 : mrcc  (arbitrary order and MRCC methods)
  Frank Weinhold                                : gennbo (NPA and NBO analysis)           
  Simon Mueller                                 : openCOSMO-RS                            
  Christopher J. Cramer and Donald G. Truhlar   : smd solvation model                     
  S Lehtola, MJT Oliveira, MAL Marques          : LibXC Library                           
  Liviu Ungur et al                             : ANISO software                          


 Your calculation uses the libint2 library for the computation of 2-el integrals
 For citations please refer to: http://libint.valeyev.net

 Your ORCA version has been built with support for libXC version: 7.0.0
 For citations please refer to: https://libxc.gitlab.io

 This ORCA versions uses:
   CBLAS   interface :  Fast vector & matrix operations
   LAPACKE interface :  Fast linear algebra routines
   Shared memory     :  Shared parallel matrices


  ***********************************
  * Starting time: Tue Jun  2 10:51:12 2026
  * Host name:     AHMET
  * Process ID:    20576
  * Working dir.:  D:\Makaleler\coumarin-logp-working-source\dft\molecules\CMR_GOLD_044
  ***********************************

NOTE: MaxCore=3000 MB was set to SCF,MP2,MDCI,CIPSI,MRCI,RASCI and CIS
      => If you want to overwrite this, your respective input block should be placed after the MaxCore statement


***************************************
The coordinates will be read from file: geometry/CMR_GOLD_044_opt.xyz
***************************************


Your calculation utilizes the atom-pairwise dispersion correction
with the Becke-Johnson damping scheme (D3BJ)


================================================================================

----- Orbital basis set information -----
Your calculation utilizes the basis: def2-SVP
   F. Weigend and R. Ahlrichs, Phys. Chem. Chem. Phys. 7, 3297 (2005).

----- AuxJ basis set information -----
Your calculation utilizes the auxiliary basis: def2/J
   H-Rn: F. Weigend, Phys. Chem. Chem. Phys. 8, 1057 (2006).
   Fr-Lr: K. Eichkorn, F. Weigend, O. Treutler, R. Ahlrichs; Theor. Chem. Acc. 97, 119 (1997).

================================================================================
                                        WARNINGS
                       Please study these warnings very carefully!
================================================================================


================================================================================
                                       INPUT FILE
================================================================================
NAME = D:\Makaleler\coumarin-logp-working-source\dft\molecules\CMR_GOLD_044\input\CMR_GOLD_044_sp.inp
|  1> ! B3LYP D3BJ def2-SVP TightSCF RIJCOSX def2/J CPCM(Water)

|  2> 

|  3> %pal

|  4>   nprocs 8

|  5> end

|  6> 

|  7> %maxcore 3000

|  8> 

|  9> %scf

| 10>   MaxIter 500

| 11> end

| 12> 

| 13> %output

| 14>   Print[P_Mulliken] 1

| 15>   Print[P_Loewdin] 1

| 16> end

| 17> 

| 18> * xyzfile 0 1 geometry/CMR_GOLD_044_opt.xyz

| 19> 
| 20>                          ****END OF INPUT****
================================================================================

                       ****************************
                       * Single Point Calculation *
                       ****************************

---------------------------------
CARTESIAN COORDINATES (ANGSTROEM)
---------------------------------
  O     -0.908068   -3.976839    0.763894
  C     -0.957563   -2.782725    0.567576
  O     -2.188941   -2.175062    0.590461
  C     -2.366425   -0.838794    0.382409
  C     -3.683659   -0.373453    0.436055
  C     -3.937252    0.979296    0.232322
  C     -2.877720    1.864208   -0.024461
  C     -1.569774    1.396433   -0.076670
  C     -1.278966    0.028320    0.126301
  C      0.049351   -0.573952    0.094368
  C      1.293630    0.181723   -0.155430
  N      1.366099    1.479781   -0.349961
  O      2.715431    1.716707   -0.531677
  C      3.351659    0.533209   -0.430858
  C      4.824317    0.505799   -0.587097
  N      2.523173   -0.441773   -0.200030
  C      0.178401   -1.915351    0.305757
  H     -4.484742   -1.086875    0.637462
  H     -4.964656    1.348651    0.273030
  H     -3.078295    2.925770   -0.184416
  H     -0.751075    2.084368   -0.275228
  H      5.298594    1.136647    0.180925
  H      5.181998   -0.525992   -0.488555
  H      5.108363    0.903959   -1.573679
  H      1.156122   -2.394057    0.287500

----------------------------
CARTESIAN COORDINATES (A.U.)
----------------------------
  NO LB      ZA    FRAG     MASS         X           Y           Z
   0 O     8.0000    0    15.999   -1.716000   -7.515137    1.443550
   1 C     6.0000    0    12.011   -1.809532   -5.258588    1.072563
   2 O     8.0000    0    15.999   -4.136499   -4.110272    1.115810
   3 C     6.0000    0    12.011   -4.471895   -1.585091    0.722648
   4 C     6.0000    0    12.011   -6.961107   -0.705724    0.824025
   5 C     6.0000    0    12.011   -7.440328    1.850601    0.439025
   6 C     6.0000    0    12.011   -5.438103    3.522843   -0.046225
   7 C     6.0000    0    12.011   -2.966443    2.638876   -0.144885
   8 C     6.0000    0    12.011   -2.416895    0.053517    0.238674
   9 C     6.0000    0    12.011    0.093260   -1.084612    0.178330
  10 C     6.0000    0    12.011    2.444606    0.343407   -0.293720
  11 N     7.0000    0    14.007    2.581553    2.796381   -0.661330
  12 O     8.0000    0    15.999    5.131421    3.244106   -1.004724
  13 C     6.0000    0    12.011    6.333718    1.007619   -0.814204
  14 C     6.0000    0    12.011    9.116638    0.955822   -1.109453
  15 N     7.0000    0    14.007    4.768106   -0.834830   -0.378002
  16 C     6.0000    0    12.011    0.337129   -3.619489    0.577797
  17 H     1.0000    0     1.008   -8.474934   -2.053896    1.204629
  18 H     1.0000    0     1.008   -9.381840    2.548581    0.515952
  19 H     1.0000    0     1.008   -5.817135    5.528904   -0.348496
  20 H     1.0000    0     1.008   -1.419326    3.938885   -0.520106
  21 H     1.0000    0     1.008   10.012892    2.147952    0.341899
  22 H     1.0000    0     1.008    9.792557   -0.993981   -0.923235
  23 H     1.0000    0     1.008    9.653407    1.708235   -2.973822
  24 H     1.0000    0     1.008    2.184754   -4.524112    0.543296

--------------------------------
INTERNAL COORDINATES (ANGSTROEM)
--------------------------------
 O      0   0   0     0.000000000000     0.00000000     0.00000000
 C      1   0   0     1.211155959051     0.00000000     0.00000000
 O      2   1   0     1.373342573314   118.04628395     0.00000000
 C      3   2   1     1.363964212428   123.20362711   180.03903177
 C      4   3   2     1.398043472269   116.28535221   179.90605294
 C      5   4   3     1.391311037094   119.32354936   180.02501079
 C      6   5   4     1.404142021256   120.13182253     0.00000000
 C      7   6   5     1.390058261089   120.31769860     0.00000000
 C      8   7   6     1.413329296546   120.92804403     0.00000000
 C      9   8   7     1.458827382168   125.72164993   179.97604713
 C     10   9   8     1.477049077137   124.02327448     0.19618059
 N     11  10   9     1.314552637701   125.21589919     1.51589006
 O     12  11  10     1.381973762543   104.03848247   179.76610924
 C     13  12  11     1.347448720638   107.49370893     0.00000000
 C     14  13  12     1.481176396715   118.54300503   180.03921600
 N     14  13  12     1.300100195410   111.78189932     0.00000000
 C     10   9   8     1.364071291767   119.25748822   180.16011411
 H      5   4   3     1.091453023553   118.75401586     0.00000000
 H      6   5   4     1.092537979434   119.64648943   179.99708163
 H      7   6   5     1.092121702236   120.05178762   179.98603320
 H      8   7   6     1.087634081937   120.15084277   180.03375075
 H     15  14  13     1.101256402622   110.12240884    60.03404557
 H     15  14  13     1.096466548147   109.40663329   180.58777042
 H     15  14  13     1.101161912908   110.13806668   301.20692049
 H     17  10   9     1.088775048541   120.97902324   179.95959254

---------------------------
INTERNAL COORDINATES (A.U.)
---------------------------
 O      0   0   0     0.000000000000     0.00000000     0.00000000
 C      1   0   0     2.288753068073     0.00000000     0.00000000
 O      2   1   0     2.595241351619   118.04628395     0.00000000
 C      3   2   1     2.577518817958   123.20362711   180.03903177
 C      4   3   2     2.641919285904   116.28535221   179.90605294
 C      5   4   3     2.629196827209   119.32354936   180.02501079
 C      6   5   4     2.653443873305   120.13182253     0.00000000
 C      7   6   5     2.626829423653   120.31769860     0.00000000
 C      8   7   6     2.670805307519   120.92804403     0.00000000
 C      9   8   7     2.756784228962   125.72164993   179.97604713
 C     10   9   8     2.791218242149   124.02327448     0.19618059
 N     11  10   9     2.484144473878   125.21589919     1.51589006
 O     12  11  10     2.611551935470   104.03848247   179.76610924
 C     13  12  11     2.546309061508   107.49370893     0.00000000
 C     14  13  12     2.799017745819   118.54300503   180.03921600
 N     14  13  12     2.456833315982   111.78189932     0.00000000
 C     10   9   8     2.577721168583   119.25748822   180.16011411
 H      5   4   3     2.062547302555   118.75401586     0.00000000
 H      6   5   4     2.064597572037   119.64648943   179.99708163
 H      7   6   5     2.063810922137   120.05178762   179.98603320
 H      8   7   6     2.055330548779   120.15084277   180.03375075
 H     15  14  13     2.081073004184   110.12240884    60.03404557
 H     15  14  13     2.072021491004   109.40663329   180.58777042
 H     15  14  13     2.080894444502   110.13806668   301.20692049
 H     17  10   9     2.057486663190   120.97902324   179.95959254

---------------------
BASIS SET INFORMATION
---------------------
There are 4 groups of distinct atoms

 Group   1 Type O   : 7s4p1d contracted to 3s2p1d pattern {511/31/1}
 Group   2 Type C   : 7s4p1d contracted to 3s2p1d pattern {511/31/1}
 Group   3 Type N   : 7s4p1d contracted to 3s2p1d pattern {511/31/1}
 Group   4 Type H   : 4s1p contracted to 2s1p pattern {31/1}

Atom   0O    basis set group =>   1
Atom   1C    basis set group =>   2
Atom   2O    basis set group =>   1
Atom   3C    basis set group =>   2
Atom   4C    basis set group =>   2
Atom   5C    basis set group =>   2
Atom   6C    basis set group =>   2
Atom   7C    basis set group =>   2
Atom   8C    basis set group =>   2
Atom   9C    basis set group =>   2
Atom  10C    basis set group =>   2
Atom  11N    basis set group =>   3
Atom  12O    basis set group =>   1
Atom  13C    basis set group =>   2
Atom  14C    basis set group =>   2
Atom  15N    basis set group =>   3
Atom  16C    basis set group =>   2
Atom  17H    basis set group =>   4
Atom  18H    basis set group =>   4
Atom  19H    basis set group =>   4
Atom  20H    basis set group =>   4
Atom  21H    basis set group =>   4
Atom  22H    basis set group =>   4
Atom  23H    basis set group =>   4
Atom  24H    basis set group =>   4
---------------------------------
AUXILIARY/J BASIS SET INFORMATION
---------------------------------
There are 4 groups of distinct atoms

 Group   1 Type O   : 12s5p4d2f1g contracted to 6s4p3d1f1g pattern {711111/2111/211/2/1}
 Group   2 Type C   : 12s5p4d2f1g contracted to 6s4p3d1f1g pattern {711111/2111/211/2/1}
 Group   3 Type N   : 12s5p4d2f1g contracted to 6s4p3d1f1g pattern {711111/2111/211/2/1}
 Group   4 Type H   : 5s2p1d contracted to 3s1p1d pattern {311/2/1}

Atom   0O    basis set group =>   1
Atom   1C    basis set group =>   2
Atom   2O    basis set group =>   1
Atom   3C    basis set group =>   2
Atom   4C    basis set group =>   2
Atom   5C    basis set group =>   2
Atom   6C    basis set group =>   2
Atom   7C    basis set group =>   2
Atom   8C    basis set group =>   2
Atom   9C    basis set group =>   2
Atom  10C    basis set group =>   2
Atom  11N    basis set group =>   3
Atom  12O    basis set group =>   1
Atom  13C    basis set group =>   2
Atom  14C    basis set group =>   2
Atom  15N    basis set group =>   3
Atom  16C    basis set group =>   2
Atom  17H    basis set group =>   4
Atom  18H    basis set group =>   4
Atom  19H    basis set group =>   4
Atom  20H    basis set group =>   4
Atom  21H    basis set group =>   4
Atom  22H    basis set group =>   4
Atom  23H    basis set group =>   4
Atom  24H    basis set group =>   4


           ************************************************************
           *        Program running with 8 parallel MPI-processes     *
           *              working on a common directory               *
           ************************************************************
------------------------------------------------------------------------------
                             ORCA STARTUP CALCULATIONS
                           -- RI-GTO INTEGRALS CHOSEN --
------------------------------------------------------------------------------
------------------------------------------------------------------------------
                   ___                                                        
                  /   \      - P O W E R E D   B Y -                         
                 /     \                                                     
                 |  |  |   _    _      __       _____    __    __             
                 |  |  |  | |  | |    /  \     |  _  \  |  |  /  |          
                  \  \/   | |  | |   /    \    | | | |  |  | /  /          
                 / \  \   | |__| |  /  /\  \   | |_| |  |  |/  /          
                |  |  |   |  __  | /  /__\  \  |    /   |      \           
                |  |  |   | |  | | |   __   |  |    \   |  |\   \          
                \     /   | |  | | |  |  |  |  | |\  \  |  | \   \       
                 \___/    |_|  |_| |__|  |__|  |_| \__\ |__|  \__/        
                                                                              
                      - O R C A' S   B I G   F R I E N D -                    
                                      &                                       
                       - I N T E G R A L  F E E D E R -                       
                                                                              
 v1 FN, 2020, v2 2021, v3 2022-2024                                           
------------------------------------------------------------------------------


----------------------
SHARK INTEGRAL PACKAGE
----------------------

Number of atoms                             ...     25
Number of basis functions                   ...    278
Number of shells                            ...    126
Maximum angular momentum                    ...      2
Integral batch strategy                     ... SHARK/LIBINT Hybrid
RI-J (if used) integral strategy            ... SPLIT-RIJ (Revised 2003 algorithm where possible)
Printlevel                                  ...      1
Contraction scheme used                     ... SEGMENTED contraction
Prescreening option                         ... SCHWARTZ
   Thresh                                   ... 2.500e-11
   Tcut                                     ... 2.500e-12
   Tpresel                                  ... 2.500e-12 
Coulomb Range Separation                    ... NOT USED
Exchange Range Separation                   ... NOT USED
Multipole approximations                    ... NOT USED
Finite Nucleus Model                        ... NOT USED
CABS basis                                  ... NOT available
Auxiliary Coulomb fitting basis             ... AVAILABLE
   # of basis functions in Aux-J            ...    921
   # of shells in Aux-J                     ...    295
   Maximum angular momentum in Aux-J        ...      4
Auxiliary J/K fitting basis                 ... NOT available
Auxiliary Correlation fitting basis         ... NOT available
Auxiliary 'external' fitting basis          ... NOT available

Checking pre-screening integrals            ... done (  0.0 sec) Dimension = 126
   => SHARK Basis and OBASIS are compatible. Storing Pre-screening
Shell pair information
Shell pair cut-off parameter TPreSel        ...   2.5e-12
Total number of shell pairs                 ...      8001
Shell pairs after pre-screening             ...      6246
Total number of primitive shell pairs       ...     30135
Primitive shell pairs kept                  ...     15579
          la=0 lb=0:   1769 shell pairs
          la=1 lb=0:   2244 shell pairs
          la=1 lb=1:    744 shell pairs
          la=2 lb=0:    833 shell pairs
          la=2 lb=1:    552 shell pairs
          la=2 lb=2:    104 shell pairs

Checking whether 4 symmetric matrices of dimension 278 fit in memory
:Max Core in MB      =   3000.00
 MB in use           =      9.70
 MB left             =   2990.30
 MB needed           =      1.18
 Data fit in memory  = YES
Calculating RI/J V-Matrix + Cholesky decomp.... done (  0.0 sec)
Calculating Nuclear repulsion               ... done (  0.0 sec) ENN=   1112.647281616194 Eh

Diagonalization of the overlap matrix:
Smallest eigenvalue                        ... 2.473e-04
Time for diagonalization                   ...    0.004 sec
Threshold for overlap eigenvalues          ... 1.000e-07
Number of eigenvalues below threshold      ... 0
Time for construction of square roots      ...    0.003 sec
Total time needed                          ...    0.008 sec

-------------------
DFT GRID GENERATION
-------------------

General Integration Accuracy     IntAcc      ... 4.388
Radial Grid Type                 RadialGrid  ... OptM3 with GC (2021)
Angular Grid (max. ang.)         AngularGrid ... 4 (Lebedev-302)
Angular grid pruning method      GridPruning ... 4 (adaptive)
Weight generation scheme         WeightScheme... mBecke (2022)
Basis function cutoff            BFCut       ... 1.0000e-11
Integration weight cutoff        WCut        ... 1.0000e-14
Partially contracted basis set               ... off
Rotationally invariant grid construction     ... off
Angular grids for H and He will be reduced by one unit

Total number of grid points                  ...   127804
Total number of batches                      ...     2010
Average number of points per batch           ...       63
Average number of grid points per atom       ...     5112

--------------------
COSX GRID GENERATION
--------------------

GRIDX 1
-------
General Integration Accuracy     IntAcc      ... 3.816
Radial Grid Type                 RadialGrid  ... OptM3 with GC (2021)
Angular Grid (max. ang.)         AngularGrid ... 1 (Lebedev-50)
Angular grid pruning method      GridPruning ... 4 (adaptive)
Weight generation scheme         WeightScheme... mBecke (2022)
Basis function cutoff            BFCut       ... 1.0000e-11
Integration weight cutoff        WCut        ... 1.0000e-14
Partially contracted basis set               ... on
Rotationally invariant grid construction     ... off
Angular grids for H and He will be reduced by one unit

Total number of grid points                  ...    16246
Total number of batches                      ...      139
Average number of points per batch           ...      116
Average number of grid points per atom       ...      650
UseSFitting                                  ... on

GRIDX 2
-------
General Integration Accuracy     IntAcc      ... 4.020
Radial Grid Type                 RadialGrid  ... OptM3 with GC (2021)
Angular Grid (max. ang.)         AngularGrid ... 2 (Lebedev-110)
Angular grid pruning method      GridPruning ... 4 (adaptive)
Weight generation scheme         WeightScheme... mBecke (2022)
Basis function cutoff            BFCut       ... 1.0000e-11
Integration weight cutoff        WCut        ... 1.0000e-14
Partially contracted basis set               ... on
Rotationally invariant grid construction     ... off
Angular grids for H and He will be reduced by one unit

Total number of grid points                  ...    36289
Total number of batches                      ...      298
Average number of points per batch           ...      121
Average number of grid points per atom       ...     1452
UseSFitting                                  ... on

GRIDX 3
-------
General Integration Accuracy     IntAcc      ... 4.338
Radial Grid Type                 RadialGrid  ... OptM3 with GC (2021)
Angular Grid (max. ang.)         AngularGrid ... 3 (Lebedev-194)
Angular grid pruning method      GridPruning ... 4 (adaptive)
Weight generation scheme         WeightScheme... mBecke (2022)
Basis function cutoff            BFCut       ... 1.0000e-11
Integration weight cutoff        WCut        ... 1.0000e-14
Partially contracted basis set               ... on
Rotationally invariant grid construction     ... off
Angular grids for H and He will be reduced by one unit

Total number of grid points                  ...    79970
Total number of batches                      ...      635
Average number of points per batch           ...      125
Average number of grid points per atom       ...     3199
UseSFitting                                  ... on
Grids setup in   1.1 sec
Initializing property integral containers    ... done (  0.1 sec)

SHARK setup successfully completed in   1.2 seconds

Maximum memory used throughout the entire STARTUP-calculation: 32.4 MB


           ************************************************************
           *        Program running with 8 parallel MPI-processes     *
           *              working on a common directory               *
           ************************************************************
-------------------------------------------------------------------------------
                                 ORCA GUESS
                   Start orbitals & Density for SCF / CASSCF
-------------------------------------------------------------------------------

------------
SCF SETTINGS
------------
Hamiltonian:
 Density Functional     Method          .... DFT(GTOs)
 Exchange Functional    Exchange        .... B88
   X-Alpha parameter    XAlpha          ....  0.666667
   Becke's b parameter  XBeta           ....  0.004200
 Correlation Functional Correlation     .... LYP
 LDA part of GGA corr.  LDAOpt          .... VWN-5
 Gradients option       PostSCFGGA      .... off
 Hybrid DFT is turned on
   Fraction HF Exchange ScalHFX         ....  0.200000
   Scaling of DF-GGA-X  ScalDFX         ....  0.720000
   Scaling of DF-GGA-C  ScalDFC         ....  0.810000
   Scaling of DF-LDA-C  ScalLDAC        ....  1.000000
   Perturbative correction              ....  0.000000
   NL short-range parameter             ....  4.800000
 RI-approximation to the Coulomb term is turned on
   Number of AuxJ basis functions       .... 921
   RIJ-COSX (HFX calculated with COS-X)).... on


General Settings:
 Integral files         IntName         .... D:\Makaleler\coumarin-logp-working-source\dft\molecules\CMR_GOLD_044\input\CMR_GOLD_044_sp
 Hartree-Fock type      HFTyp           .... RHF
 Total Charge           Charge          ....    0
 Multiplicity           Mult            ....    1
 Number of Electrons    NEL             ....  118
 Basis Dimension        Dim             ....  278
 Nuclear Repulsion      ENuc            ....   1112.6472816162 Eh

Convergence Acceleration:
 AO-DIIS                CNVDIIS         .... on
   Start iteration      DIISMaxIt       ....    12
   Startup error        DIISStart       ....  0.200000
   # of expansion vecs  DIISMaxEq       ....     5
   Bias factor          DIISBfac        ....   1.050
   Max. coefficient     DIISMaxC        ....  10.000
 MO-DIIS                CNVKDIIS        .... off
 Trust-Rad. Augm. Hess. CNVTRAH         .... auto
   Auto Start mean grad. ratio tolernc. ....  1.125000
   Auto Start start iteration           ....    50
   Auto Start num. interpolation iter.  ....    10
   Max. Number of Micro iterations      ....    24
   Max. Number of Macro iterations      .... Maxiter - #DIIS iter
   Number of Davidson start vectors     ....     2
   Converg. threshold    (grad. norm)   ....   1.000e-05
   Grad. Scal. Fac. for Micro threshold ....   0.100
   Minimum threshold for Micro iter.    ....   1.000e-02
   NR start threshold (gradient norm)   ....   1.000e-04
   Initial trust radius                 ....   0.400
   Minimum AH scaling param. (alpha)    ....   1.000
   Maximum AH scaling param. (alpha)    .... 1000.000
   Quad. conv. algorithm                .... NR
   White noise on init. David. guess    .... on
   Maximum white noise                  ....   0.010
   Pseudo random numbers                .... off
   Inactive MOs                         .... canonical
   Orbital update algorithm             .... Taylor
   Preconditioner                       .... Diag
   Full preconditioner red. dimension   ....   250
 SOSCF                 CNVSOSCF           .... on
   Start iteration     SOSCFMaxIt         ....   150
   Startup grad/error  SOSCFStart         ....  0.003300
   Hessian update      SOSCFHessUp        .... L-BFGS
   Autom. constraints  SOSCFAutoConstrain .... off
 Level Shifting         CNVShift        .... on
   Level shift para.    LevelShift      ....    0.2500
   Turn off err/grad.   ShiftErr        ....    0.0010
 Zerner damping         CNVZerner       .... off
 Static damping         CNVDamp         .... on
   Fraction old density DampFac         ....    0.7000
   Max. Damping (<1)    DampMax         ....    0.9800
   Min. Damping (>=0)   DampMin         ....    0.0000
   Turn off err/grad.   DampErr         ....    0.1000

SCF Procedure:
 Maximum # iterations   MaxIter         ....   500
 SCF integral mode      SCFMode         .... Direct
   Integral package                     .... SHARK and LIBINT hybrid scheme
 Reset frequency        DirectResetFreq ....    20
 Integral Threshold     Thresh          ....  2.500e-11 Eh
 Primitive CutOff       TCut            ....  2.500e-12 Eh

Convergence Tolerance:
 Convergence Check Mode ConvCheckMode   .... Total+1el-Energy
 Convergence forced     ConvForced      .... 0
 Energy Change          TolE            ....  1.000e-08 Eh
 1-El. energy change                    ....  1.000e-05 Eh
 Orbital Gradient       TolG            ....  1.000e-05
 Orbital Rotation angle TolX            ....  1.000e-05
 DIIS Error             TolErr          ....  5.000e-07

------------------------------
INITIAL GUESS: MODEL POTENTIAL
------------------------------
Loading Hartree-Fock densities                     ... done
Calculating cut-offs                               ... done
Initializing the effective Hamiltonian             ... done
Setting up the integral package (SHARK)            ... done
Starting the Coulomb interaction                   ... done (   0.0 sec)
Making the grid                                    ... done (   0.2 sec)
Mapping shells                                     ... done
Starting the XC term evaluation                    ... done (   0.1 sec)
  promolecular density results
     # of electrons  =    117.991564620
     EX              =   -101.823315919
     EC              =     -4.099241571
     EX+EC           =   -105.922557490
Transforming the Hamiltonian                       ... done (   0.0 sec)
Diagonalizing the Hamiltonian                      ... done (   0.0 sec)
Back transforming the eigenvectors                 ... done (   0.0 sec)
Now organizing SCF variables                       ... done
                      ------------------
                      INITIAL GUESS DONE (   0.4 sec)
                      ------------------
             **** ENERGY FILE WAS UPDATED (D:\Makaleler\coumarin-logp-working-source\dft\molecules\CMR_GOLD_044\input\CMR_GOLD_044_sp.en.tmp) ****
Finished Guess after   0.6 sec
Maximum memory used throughout the entire GUESS-calculation: 13.3 MB


           ************************************************************
           *        Program running with 8 parallel MPI-processes     *
           *              working on a common directory               *
           ************************************************************

-------------------------------------------------------------------------------------------
                                      ORCA LEAN-SCF
                              memory conserving SCF solver
-------------------------------------------------------------------------------------------

--------------------
CPCM SOLVATION MODEL
--------------------
CPCM parameters:
  Epsilon                                         ...      80.1510
  Refrac                                          ...       1.3328
  Rsolv                                           ...       1.3000
  Surface type                                    ... GAUSSIAN VDW
  Discretization scheme                           ... Constant charge density
    Threshold for H atoms                         ...       5.0000 (charges/Ang^2)
    Threshold for non-H atoms                     ...       5.0000 (charges/Ang^2)
  Epsilon function type                           ...         CPCM
Solvent:                                          ... WATER
Radii:
  Scheme                                          ... Element-dependent radii
  Radius for O  used is    3.4469 Bohr (=   1.8240 Ang.)
  Radius for C  used is    3.8550 Bohr (=   2.0400 Ang.)
  Radius for N  used is    3.5149 Bohr (=   1.8600 Ang.)
  Radius for H  used is    2.4944 Bohr (=   1.3200 Ang.)
Calculating surface                               ...        done! (  0.0s)
Cavity surface points                             ...         2382
Cavity Volume                                     ...    1709.5727
Cavity Surface-area                               ...     892.7915
Calculating surface distance matrix               ...        done! (  0.0s)
Performing Cholesky decomposition & store         ...        done! (  0.1s)
Overall time for CPCM initialization              ...                 0.2s

----------------------------------------D-I-I-S--------------------------------------------
Iteration    Energy (Eh)           Delta-E    RMSDP     MaxDP     DIISErr   Damp  Time(sec)
-------------------------------------------------------------------------------------------
               ***  Starting incremental Fock matrix formation  ***
    1    -795.8898270041652268     0.00e+00  8.87e-03  1.23e-01  2.75e-01  0.700   1.2
    2    -796.0538086482138169    -1.64e-01  5.80e-03  7.88e-02  1.06e-01  0.700   0.8
                               ***Turning on AO-DIIS***
    3    -796.1160315683116551    -6.22e-02  2.53e-03  1.69e-02  3.62e-02  0.700   0.8
    4    -796.1547378121190377    -3.87e-02  4.74e-03  3.44e-02  1.84e-02  0.000   1.0
    5    -796.2399464781067309    -8.52e-02  7.03e-04  5.95e-03  5.74e-03  0.000   1.0
                              *** Initializing SOSCF ***
---------------------------------------S-O-S-C-F--------------------------------------
Iteration    Energy (Eh)           Delta-E    RMSDP     MaxDP     MaxGrad    Time(sec)
--------------------------------------------------------------------------------------
    6    -796.2404318681690256    -4.85e-04  2.41e-04  2.25e-03  2.32e-03     0.9
               *** Restarting incremental Fock matrix formation ***
    7    -796.2404836103746675    -5.17e-05  2.02e-04  3.07e-03  3.39e-04     1.5
    8    -796.2404715391069203     1.21e-05  1.16e-04  2.25e-03  8.03e-04     1.2
    9    -796.2404924792056136    -2.09e-05  3.54e-05  3.68e-04  7.53e-05     1.2
   10    -796.2404921088343599     3.70e-07  2.11e-05  2.15e-04  1.10e-04     1.1
   11    -796.2404928063333500    -6.97e-07  6.92e-06  9.22e-05  1.30e-05     0.9
   12    -796.2404928063861007    -5.28e-11  3.91e-06  5.90e-05  1.61e-05     0.8
                 **** Energy Check signals convergence ****

               *****************************************************
               *                     SUCCESS                       *
               *           SCF CONVERGED AFTER  12 CYCLES          *
               *****************************************************

Recomputing exchange energy using gridx3       ... done (    1.486 sec)
Old exchange energy                            :    -20.549019744 Eh
New exchange energy                            :    -20.549109281 Eh
Exchange energy change after final integration :     -0.000089537 Eh
Total energy after final integration           :   -796.240582354 Eh
             **** ENERGY FILE WAS UPDATED (D:\Makaleler\coumarin-logp-working-source\dft\molecules\CMR_GOLD_044\input\CMR_GOLD_044_sp.en.tmp) ****

----------------
TOTAL SCF ENERGY
----------------

Total Energy       :       -796.24058235352675 Eh          -21666.80777 eV

Components:
Nuclear Repulsion  :       1112.64728161619428 Eh           30276.67177 eV
Electronic Energy  :      -1908.86981953581221 Eh          -51942.98852 eV
One Electron Energy:      -3290.77732986632736 Eh          -89546.60361 eV
Two Electron Energy:       1381.90751033051515 Eh           37603.61509 eV
CPCM Dielectric    :         -0.01795489677557 Eh              -0.48858 eV

Virial components:
Potential Energy   :      -1585.41606642195006 Eh          -43141.36443 eV
Kinetic Energy     :        789.17548406842332 Eh           21474.55667 eV
Virial Ratio       :          2.00895250603666

DFT components:
N(Alpha)           :       58.999973565886 electrons
N(Beta)            :       58.999973565886 electrons
N(Total)           :      117.999947131773 electrons
E(X)               :      -81.769269017750 Eh       
E(C)               :       -4.817741363839 Eh       
E(XC)              :      -86.587010381589 Eh       

CPCM Solvation Model Properties:
Surface-charge          :         -0.01894630564485
Corrected charge        :          0.00000000000000
Outlying charge corr.   :          0.00002137312759 Eh               0.00058 eV
Free-energy (cav+disp)  :  This term is not implemented in the current solvation scheme

---------------
SCF CONVERGENCE
---------------

  Last Energy change         ...    5.2751e-11  Tolerance :   1.0000e-08
  Last MAX-Density change    ...    5.8968e-05  Tolerance :   1.0000e-07
  Last RMS-Density change    ...    3.9076e-06  Tolerance :   5.0000e-09
  Last DIIS Error            ...    2.3221e-03  Tolerance :   5.0000e-07
  Last Orbital Gradient      ...    1.6114e-05  Tolerance :   1.0000e-05
  Last Orbital Rotation      ...    2.5412e-05  Tolerance :   1.0000e-05


----------------
ORBITAL ENERGIES
----------------

  NO   OCC          E(Eh)            E(eV) 
   0   2.0000     -19.243814      -523.6508 
   1   2.0000     -19.206369      -522.6319 
   2   2.0000     -19.126038      -520.4459 
   3   2.0000     -14.395380      -391.7182 
   4   2.0000     -14.343838      -390.3157 
   5   2.0000     -10.328200      -281.0446 
   6   2.0000     -10.304561      -280.4014 
   7   2.0000     -10.275570      -279.6125 
   8   2.0000     -10.272300      -279.5235 
   9   2.0000     -10.247130      -278.8386 
  10   2.0000     -10.220838      -278.1231 
  11   2.0000     -10.215116      -277.9674 
  12   2.0000     -10.205757      -277.7128 
  13   2.0000     -10.204657      -277.6828 
  14   2.0000     -10.201992      -277.6103 
  15   2.0000     -10.200723      -277.5758 
  16   2.0000     -10.196512      -277.4612 
  17   2.0000      -1.177364       -32.0377 
  18   2.0000      -1.118383       -30.4328 
  19   2.0000      -1.026090       -27.9213 
  20   2.0000      -0.947480       -25.7822 
  21   2.0000      -0.891245       -24.2520 
  22   2.0000      -0.865858       -23.5612 
  23   2.0000      -0.829507       -22.5720 
  24   2.0000      -0.761275       -20.7153 
  25   2.0000      -0.754491       -20.5307 
  26   2.0000      -0.742876       -20.2147 
  27   2.0000      -0.694294       -18.8927 
  28   2.0000      -0.663431       -18.0529 
  29   2.0000      -0.636904       -17.3310 
  30   2.0000      -0.628381       -17.0991 
  31   2.0000      -0.599202       -16.3051 
  32   2.0000      -0.559442       -15.2232 
  33   2.0000      -0.530458       -14.4345 
  34   2.0000      -0.522696       -14.2233 
  35   2.0000      -0.516761       -14.0618 
  36   2.0000      -0.496294       -13.5048 
  37   2.0000      -0.486962       -13.2509 
  38   2.0000      -0.476703       -12.9718 
  39   2.0000      -0.452989       -12.3265 
  40   2.0000      -0.447759       -12.1841 
  41   2.0000      -0.444573       -12.0974 
  42   2.0000      -0.436425       -11.8757 
  43   2.0000      -0.424545       -11.5525 
  44   2.0000      -0.424127       -11.5411 
  45   2.0000      -0.412523       -11.2253 
  46   2.0000      -0.398882       -10.8541 
  47   2.0000      -0.394369       -10.7313 
  48   2.0000      -0.382163       -10.3992 
  49   2.0000      -0.374425       -10.1886 
  50   2.0000      -0.359177        -9.7737 
  51   2.0000      -0.347697        -9.4613 
  52   2.0000      -0.341068        -9.2809 
  53   2.0000      -0.322726        -8.7818 
  54   2.0000      -0.310460        -8.4480 
  55   2.0000      -0.293312        -7.9814 
  56   2.0000      -0.292753        -7.9662 
  57   2.0000      -0.259791        -7.0693 
  58   2.0000      -0.245610        -6.6834 
  59   0.0000      -0.093282        -2.5383 
  60   0.0000      -0.034443        -0.9373 
  61   0.0000      -0.017634        -0.4798 
  62   0.0000      -0.006865        -0.1868 
  63   0.0000       0.043614         1.1868 
  64   0.0000       0.071715         1.9515 
  65   0.0000       0.075836         2.0636 
  66   0.0000       0.093723         2.5503 
  67   0.0000       0.097998         2.6667 
  68   0.0000       0.112750         3.0681 
  69   0.0000       0.117469         3.1965 
*Only the first 10 virtual orbitals were printed.

                    ********************************
                    * MULLIKEN POPULATION ANALYSIS *
                    ********************************

-----------------------
MULLIKEN ATOMIC CHARGES
-----------------------
   0 O :   -0.240006
   1 C :    0.241503
   2 O :   -0.236782
   3 C :    0.156220
   4 C :   -0.034875
   5 C :    0.027893
   6 C :    0.020791
   7 C :   -0.029986
   8 C :    0.018379
   9 C :    0.208275
  10 C :   -0.025325
  11 N :   -0.018048
  12 O :   -0.183155
  13 C :    0.064614
  14 C :    0.111484
  15 N :   -0.165605
  16 C :   -0.173869
  17 H :    0.006631
  18 H :    0.021235
  19 H :    0.011557
  20 H :   -0.002357
  21 H :    0.070863
  22 H :    0.053699
  23 H :    0.070321
  24 H :    0.026545
Sum of atomic charges:    0.0000000

--------------------------------
MULLIKEN REDUCED ORBITAL CHARGES
--------------------------------
  0 O s       :     3.702246  s :     3.702246
      pz      :     1.428442  p :     4.519998
      px      :     1.756647
      py      :     1.334909
      dz2     :     0.002138  d :     0.017762
      dxz     :     0.000140
      dyz     :     0.005584
      dx2y2   :     0.006145
      dxy     :     0.003755

  1 C s       :     3.009790  s :     3.009790
      pz      :     0.851045  p :     2.619831
      px      :     0.866371
      py      :     0.902415
      dz2     :     0.008723  d :     0.128877
      dxz     :     0.011052
      dyz     :     0.024569
      dx2y2   :     0.031231
      dxy     :     0.053302

  2 O s       :     3.709292  s :     3.709292
      pz      :     1.689058  p :     4.511145
      px      :     1.491616
      py      :     1.330471
      dz2     :     0.002244  d :     0.016344
      dxz     :     0.002135
      dyz     :     0.002770
      dx2y2   :     0.006262
      dxy     :     0.002933

  3 C s       :     3.018248  s :     3.018248
      pz      :     0.979326  p :     2.753871
      px      :     0.992018
      py      :     0.782527
      dz2     :     0.005931  d :     0.071661
      dxz     :     0.007889
      dyz     :     0.013722
      dx2y2   :     0.024311
      dxy     :     0.019807

  4 C s       :     3.281032  s :     3.281032
      pz      :     1.003726  p :     2.721159
      px      :     0.889424
      py      :     0.828009
      dz2     :     0.002679  d :     0.032683
      dxz     :     0.004197
      dyz     :     0.004735
      dx2y2   :     0.009862
      dxy     :     0.011210

  5 C s       :     3.182556  s :     3.182556
      pz      :     0.946782  p :     2.754187
      px      :     0.871258
      py      :     0.936146
      dz2     :     0.002888  d :     0.035364
      dxz     :     0.003101
      dyz     :     0.006313
      dx2y2   :     0.011941
      dxy     :     0.011121

  6 C s       :     3.174990  s :     3.174990
      pz      :     0.987099  p :     2.769767
      px      :     0.942431
      py      :     0.840237
      dz2     :     0.002614  d :     0.034453
      dxz     :     0.005894
      dyz     :     0.002800
      dx2y2   :     0.012126
      dxy     :     0.011019

  7 C s       :     3.278021  s :     3.278021
      pz      :     0.950939  p :     2.717663
      px      :     0.827300
      py      :     0.939424
      dz2     :     0.002627  d :     0.034303
      dxz     :     0.004663
      dyz     :     0.004869
      dx2y2   :     0.010820
      dxy     :     0.011325

  8 C s       :     3.099320  s :     3.099320
      pz      :     1.044684  p :     2.842420
      px      :     0.942933
      py      :     0.854804
      dz2     :     0.003595  d :     0.039881
      dxz     :     0.005181
      dyz     :     0.006569
      dx2y2   :     0.010238
      dxy     :     0.014298

  9 C s       :     3.076211  s :     3.076211
      pz      :     0.934285  p :     2.673816
      px      :     0.928641
      py      :     0.810890
      dz2     :     0.003483  d :     0.041698
      dxz     :     0.006100
      dyz     :     0.007477
      dx2y2   :     0.011100
      dxy     :     0.013538

 10 C s       :     3.100419  s :     3.100419
      pz      :     0.967889  p :     2.849042
      px      :     0.944012
      py      :     0.937141
      dz2     :     0.005736  d :     0.075863
      dxz     :     0.009663
      dyz     :     0.013412
      dx2y2   :     0.025396
      dxy     :     0.021657

 11 N s       :     3.624140  s :     3.624140
      pz      :     1.228260  p :     3.351357
      px      :     0.872144
      py      :     1.250953
      dz2     :     0.005412  d :     0.042551
      dxz     :     0.005880
      dyz     :     0.006491
      dx2y2   :     0.018342
      dxy     :     0.006426

 12 O s       :     3.769260  s :     3.769260
      pz      :     1.662848  p :     4.389266
      px      :     1.188575
      py      :     1.537843
      dz2     :     0.002890  d :     0.024629
      dxz     :     0.003998
      dyz     :     0.003202
      dx2y2   :     0.007282
      dxy     :     0.007258

 13 C s       :     3.131135  s :     3.131135
      pz      :     0.893747  p :     2.708281
      px      :     0.985997
      py      :     0.828537
      dz2     :     0.007306  d :     0.095970
      dxz     :     0.012481
      dyz     :     0.015727
      dx2y2   :     0.029487
      dxy     :     0.030969

 14 C s       :     2.888016  s :     2.888016
      pz      :     1.036987  p :     2.974654
      px      :     0.926606
      py      :     1.011062
      dz2     :     0.005954  d :     0.025846
      dxz     :     0.003966
      dyz     :     0.004563
      dx2y2   :     0.008582
      dxy     :     0.002780

 15 N s       :     3.515736  s :     3.515736
      pz      :     1.210835  p :     3.620132
      px      :     0.998453
      py      :     1.410844
      dz2     :     0.003509  d :     0.029737
      dxz     :     0.003168
      dyz     :     0.006088
      dx2y2   :     0.005423
      dxy     :     0.011548

 16 C s       :     3.368132  s :     3.368132
      pz      :     0.993607  p :     2.775521
      px      :     0.868925
      py      :     0.912988
      dz2     :     0.002761  d :     0.030216
      dxz     :     0.002260
      dyz     :     0.005088
      dx2y2   :     0.008555
      dxy     :     0.011551

 17 H s       :     0.970168  s :     0.970168
      pz      :     0.004827  p :     0.023202
      px      :     0.009932
      py      :     0.008443

 18 H s       :     0.955847  s :     0.955847
      pz      :     0.004117  p :     0.022918
      px      :     0.014138
      py      :     0.004663

 19 H s       :     0.965415  s :     0.965415
      pz      :     0.004642  p :     0.023028
      px      :     0.003623
      py      :     0.014763

 20 H s       :     0.977388  s :     0.977388
      pz      :     0.004751  p :     0.024969
      px      :     0.011807
      py      :     0.008411

 21 H s       :     0.904784  s :     0.904784
      pz      :     0.009974  p :     0.024353
      px      :     0.006150
      py      :     0.008229

 22 H s       :     0.922590  s :     0.922590
      pz      :     0.004785  p :     0.023711
      px      :     0.004948
      py      :     0.013978

 23 H s       :     0.905343  s :     0.905343
      pz      :     0.013222  p :     0.024336
      px      :     0.004792
      py      :     0.006321

 24 H s       :     0.949720  s :     0.949720
      pz      :     0.004182  p :     0.023736
      px      :     0.013901
      py      :     0.005653



                     *******************************
                     * LOEWDIN POPULATION ANALYSIS *
                     *******************************

----------------------
LOEWDIN ATOMIC CHARGES
----------------------
   0 O :   -0.212817
   1 C :    0.082608
   2 O :   -0.037459
   3 C :    0.074404
   4 C :   -0.039262
   5 C :    0.001870
   6 C :   -0.030673
   7 C :   -0.004878
   8 C :   -0.053735
   9 C :    0.015944
  10 C :   -0.001118
  11 N :   -0.050335
  12 O :    0.007471
  13 C :    0.082364
  14 C :   -0.046940
  15 N :   -0.140375
  16 C :   -0.040727
  17 H :    0.045997
  18 H :    0.043632
  19 H :    0.040542
  20 H :    0.030557
  21 H :    0.064239
  22 H :    0.057426
  23 H :    0.063951
  24 H :    0.047315

-------------------------------
LOEWDIN REDUCED ORBITAL CHARGES
-------------------------------
  0 O s       :     3.541946  s :     3.541946
      pz      :     1.424968  p :     4.640697
      px      :     1.756916
      py      :     1.458813
      dz2     :     0.004220  d :     0.030174
      dxz     :     0.000190
      dyz     :     0.007599
      dx2y2   :     0.012676
      dxy     :     0.005488

  1 C s       :     2.844787  s :     2.844787
      pz      :     0.849286  p :     2.782651
      px      :     0.926496
      py      :     1.006870
      dz2     :     0.019192  d :     0.289954
      dxz     :     0.022022
      dyz     :     0.047674
      dx2y2   :     0.075023
      dxy     :     0.126043

  2 O s       :     3.428865  s :     3.428865
      pz      :     1.664343  p :     4.576339
      px      :     1.526210
      py      :     1.385786
      dz2     :     0.004256  d :     0.032256
      dxz     :     0.002890
      dyz     :     0.004853
      dx2y2   :     0.012751
      dxy     :     0.007505

  3 C s       :     2.839895  s :     2.839895
      pz      :     0.969487  p :     2.918219
      px      :     1.087398
      py      :     0.861334
      dz2     :     0.012722  d :     0.167482
      dxz     :     0.016089
      dyz     :     0.028124
      dx2y2   :     0.059842
      dxy     :     0.050704

  4 C s       :     2.863914  s :     2.863914
      pz      :     0.997337  p :     3.088469
      px      :     1.033160
      py      :     1.057972
      dz2     :     0.006533  d :     0.086879
      dxz     :     0.008601
      dyz     :     0.009947
      dx2y2   :     0.029374
      dxy     :     0.032423

  5 C s       :     2.865301  s :     2.865301
      pz      :     0.935873  p :     3.042266
      px      :     1.048346
      py      :     1.058047
      dz2     :     0.006746  d :     0.090563
      dxz     :     0.005897
      dyz     :     0.013927
      dx2y2   :     0.032847
      dxy     :     0.031145

  6 C s       :     2.861771  s :     2.861771
      pz      :     0.976741  p :     3.079152
      px      :     1.060783
      py      :     1.041628
      dz2     :     0.006300  d :     0.089749
      dxz     :     0.013051
      dyz     :     0.005164
      dx2y2   :     0.033887
      dxy     :     0.031346

  7 C s       :     2.863584  s :     2.863584
      pz      :     0.947922  p :     3.052177
      px      :     1.066518
      py      :     1.037737
      dz2     :     0.006182  d :     0.089117
      dxz     :     0.009510
      dyz     :     0.010465
      dx2y2   :     0.030720
      dxy     :     0.032240

  8 C s       :     2.841223  s :     2.841223
      pz      :     1.026950  p :     3.106163
      px      :     1.019696
      py      :     1.059517
      dz2     :     0.008430  d :     0.106350
      dxz     :     0.010792
      dyz     :     0.013883
      dx2y2   :     0.031316
      dxy     :     0.041928

  9 C s       :     2.854949  s :     2.854949
      pz      :     0.920904  p :     3.020667
      px      :     1.030117
      py      :     1.069646
      dz2     :     0.008217  d :     0.108440
      dxz     :     0.012633
      dyz     :     0.015526
      dx2y2   :     0.033728
      dxy     :     0.038336

 10 C s       :     2.853695  s :     2.853695
      pz      :     0.950504  p :     2.971819
      px      :     1.000598
      py      :     1.020717
      dz2     :     0.012643  d :     0.175604
      dxz     :     0.017419
      dyz     :     0.026383
      dx2y2   :     0.063818
      dxy     :     0.055339

 11 N s       :     3.343366  s :     3.343366
      pz      :     1.232229  p :     3.623703
      px      :     1.023408
      py      :     1.368066
      dz2     :     0.010670  d :     0.083266
      dxz     :     0.010341
      dyz     :     0.009935
      dx2y2   :     0.038751
      dxy     :     0.013569

 12 O s       :     3.487710  s :     3.487710
      pz      :     1.642522  p :     4.460061
      px      :     1.239589
      py      :     1.577950
      dz2     :     0.005152  d :     0.044758
      dxz     :     0.007037
      dyz     :     0.003808
      dx2y2   :     0.015182
      dxy     :     0.013579

 13 C s       :     2.863028  s :     2.863028
      pz      :     0.883195  p :     2.845212
      px      :     1.037331
      py      :     0.924686
      dz2     :     0.015565  d :     0.209396
      dxz     :     0.020811
      dyz     :     0.031790
      dx2y2   :     0.067237
      dxy     :     0.073993

 14 C s       :     2.830649  s :     2.830649
      pz      :     1.075641  p :     3.147095
      px      :     0.993221
      py      :     1.078232
      dz2     :     0.015622  d :     0.069197
      dxz     :     0.010615
      dyz     :     0.011025
      dx2y2   :     0.023450
      dxy     :     0.008486

 15 N s       :     3.244908  s :     3.244908
      pz      :     1.206980  p :     3.833869
      px      :     1.123186
      py      :     1.503703
      dz2     :     0.007014  d :     0.061597
      dxz     :     0.007379
      dyz     :     0.007441
      dx2y2   :     0.012285
      dxy     :     0.027478

 16 C s       :     2.878719  s :     2.878719
      pz      :     0.984225  p :     3.078462
      px      :     1.046097
      py      :     1.048140
      dz2     :     0.007147  d :     0.083546
      dxz     :     0.004624
      dyz     :     0.010967
      dx2y2   :     0.026688
      dxy     :     0.034119

 17 H s       :     0.884583  s :     0.884583
      pz      :     0.015483  p :     0.069419
      px      :     0.029136
      py      :     0.024800

 18 H s       :     0.888861  s :     0.888861
      pz      :     0.012917  p :     0.067506
      px      :     0.040278
      py      :     0.014312

 19 H s       :     0.891669  s :     0.891669
      pz      :     0.014568  p :     0.067789
      px      :     0.011509
      py      :     0.041713

 20 H s       :     0.892942  s :     0.892942
      pz      :     0.014922  p :     0.076501
      px      :     0.036293
      py      :     0.025286

 21 H s       :     0.869626  s :     0.869626
      pz      :     0.026897  p :     0.066136
      px      :     0.017209
      py      :     0.022030

 22 H s       :     0.876271  s :     0.876271
      pz      :     0.012479  p :     0.066304
      px      :     0.014388
      py      :     0.039437

 23 H s       :     0.869909  s :     0.869909
      pz      :     0.036576  p :     0.066139
      px      :     0.013466
      py      :     0.016097

 24 H s       :     0.878877  s :     0.878877
      pz      :     0.014412  p :     0.073808
      px      :     0.042692
      py      :     0.016704



                      *****************************
                      * MAYER POPULATION ANALYSIS *
                      *****************************

  NA   - Mulliken gross atomic population
  ZA   - Total nuclear charge
  QA   - Mulliken gross atomic charge
  VA   - Mayer's total valence
  BVA  - Mayer's bonded valence
  FA   - Mayer's free valence

  ATOM       NA         ZA         QA         VA         BVA        FA
  0 O      8.2400     8.0000    -0.2400     2.2773     2.2773     0.0000
  1 C      5.7585     6.0000     0.2415     4.2714     4.2714    -0.0000
  2 O      8.2368     8.0000    -0.2368     2.2557     2.2557     0.0000
  3 C      5.8438     6.0000     0.1562     3.8916     3.8916    -0.0000
  4 C      6.0349     6.0000    -0.0349     3.8255     3.8255    -0.0000
  5 C      5.9721     6.0000     0.0279     3.7861     3.7861     0.0000
  6 C      5.9792     6.0000     0.0208     3.7734     3.7734     0.0000
  7 C      6.0300     6.0000    -0.0300     3.7720     3.7720     0.0000
  8 C      5.9816     6.0000     0.0184     3.8198     3.8198    -0.0000
  9 C      5.7917     6.0000     0.2083     3.6392     3.6392    -0.0000
 10 C      6.0253     6.0000    -0.0253     4.1676     4.1676     0.0000
 11 N      7.0180     7.0000    -0.0180     2.8991     2.8991     0.0000
 12 O      8.1832     8.0000    -0.1832     2.2977     2.2977     0.0000
 13 C      5.9354     6.0000     0.0646     4.2060     4.2060     0.0000
 14 C      5.8885     6.0000     0.1115     3.9337     3.9337     0.0000
 15 N      7.1656     7.0000    -0.1656     3.1024     3.1024     0.0000
 16 C      6.1739     6.0000    -0.1739     3.7371     3.7371     0.0000
 17 H      0.9934     1.0000     0.0066     0.9954     0.9954     0.0000
 18 H      0.9788     1.0000     0.0212     0.9801     0.9801     0.0000
 19 H      0.9884     1.0000     0.0116     0.9808     0.9808    -0.0000
 20 H      1.0024     1.0000    -0.0024     1.0475     1.0475     0.0000
 21 H      0.9291     1.0000     0.0709     0.9959     0.9959    -0.0000
 22 H      0.9463     1.0000     0.0537     1.0079     1.0079    -0.0000
 23 H      0.9297     1.0000     0.0703     0.9961     0.9961     0.0000
 24 H      0.9735     1.0000     0.0265     1.0315     1.0315     0.0000

  Mayer bond orders larger than 0.100000
B(  0-O ,  1-C ) :   2.1017 B(  1-C ,  2-O ) :   1.0598 B(  1-C , 16-C ) :   1.0265 
B(  2-O ,  3-C ) :   1.0844 B(  3-C ,  4-C ) :   1.3563 B(  3-C ,  8-C ) :   1.2888 
B(  4-C ,  5-C ) :   1.3741 B(  4-C , 17-H ) :   0.9941 B(  5-C ,  6-C ) :   1.3228 
B(  5-C , 18-H ) :   0.9894 B(  6-C ,  7-C ) :   1.3938 B(  6-C , 19-H ) :   0.9889 
B(  7-C ,  8-C ) :   1.3191 B(  7-C , 20-H ) :   0.9696 B(  8-C ,  9-C ) :   1.0900 
B(  9-C , 10-C ) :   0.9960 B(  9-C , 16-C ) :   1.5719 B( 10-C , 11-N ) :   1.6822 
B( 10-C , 15-N ) :   1.3430 B( 11-N , 12-O ) :   0.9883 B( 12-O , 13-C ) :   1.1557 
B( 13-C , 14-C ) :   1.1303 B( 13-C , 15-N ) :   1.6681 B( 14-C , 21-H ) :   0.9298 
B( 14-C , 22-H ) :   0.9410 B( 14-C , 23-H ) :   0.9300 B( 16-C , 24-H ) :   0.9669 


-------
TIMINGS
-------

Total SCF time: 0 days 0 hours 0 min 15 sec 

Total time                  ....      15.119 sec
Sum of individual times     ....      14.391 sec  ( 95.2%)

SCF preparation             ....       0.375 sec  (  2.5%)
Fock matrix formation       ....      12.792 sec  ( 84.6%)
  Startup                   ....       0.026 sec  (  0.2% of F)
  Split-RI-J                ....       1.202 sec  (  9.4% of F)
  Chain of spheres X        ....       8.045 sec  ( 62.9% of F)
  XC integration            ....       1.822 sec  ( 14.2% of F)
    Basis function eval.    ....       0.509 sec  ( 27.9% of XC)
    Density eval.           ....       0.345 sec  ( 18.9% of XC)
    XC-Functional eval.     ....       0.056 sec  (  3.1% of XC)
    XC-Potential eval.      ....       0.373 sec  ( 20.5% of XC)
  CPCM terms                ....       2.015 sec  ( 15.8% of F)
Diagonalization             ....       0.000 sec  (  0.0%)
Density matrix formation    ....       0.254 sec  (  1.7%)
Total Energy calculation    ....       0.130 sec  (  0.9%)
Population analysis         ....       0.049 sec  (  0.3%)
Orbital Transformation      ....       0.045 sec  (  0.3%)
Orbital Orthonormalization  ....       0.000 sec  (  0.0%)
DIIS solution               ....       0.358 sec  (  2.4%)
SOSCF solution              ....       0.388 sec  (  2.6%)
Finished LeanSCF after  15.2 sec

Maximum memory used throughout the entire LEANSCF-calculation: 24.2 MB


-------------------------------------------------------------------------------
                          DFT DISPERSION CORRECTION                            
                                                                               
                              DFTD3 V3.1  Rev 1                                
                          USING Becke-Johnson damping                          
-------------------------------------------------------------------------------
The B3LYP functional is recognized
Active option DFTDOPT                   ...         4   

molecular C6(AA) [au] = 8346.286088 


            DFT-D V3
 parameters
 s6 scaling factor         :     1.0000 
 a1 scaling factor         :     0.3981 
 s8 scaling factor         :     1.9889 
 a2 scaling factor         :     4.4211 
 ad hoc parameters k1-k3   :    16.0000     1.3333    -4.0000 

 Edisp/kcal,au: -33.143770491521  -0.052817954670 
 E6   /kcal   : -15.309242395 
 E8   /kcal   : -17.834528097 
 % E8         :  53.809593272 

-------------------------   ----------------
Dispersion correction           -0.052817955
-------------------------   ----------------


-------------------------   --------------------
FINAL SINGLE POINT ENERGY      -796.293400308197
-------------------------   --------------------



           ************************************************************
           *        Program running with 8 parallel MPI-processes     *
           *              working on a common directory               *
           ************************************************************

------------------------------------------------------------------------------
                              ORCA PROPERTY CALCULATIONS
------------------------------------------------------------------------------

GBWName                                 ... D:\Makaleler\coumarin-logp-working-source\dft\molecules\CMR_GOLD_044\input\CMR_GOLD_044_sp.gbw
Number of atoms                         ...     25
Number of basis functions               ...    278
Max core memory                         ...   3000 MB

Electric properties:
Dipole moment                           ... YES
Quadrupole moment                       ...  NO
Static polarizability (Dipole/Dipole)   ...  NO
Static polarizability (Dipole/Quad.)    ...  NO
Static polarizability (Quad./Quad.)     ...  NO
Static polarizability (Velocity)        ...  NO
Static hyperpolarizability              ...  NO

Atomic electric properties:
Dipole moment                           ...  NO
Quadrupole moment                       ...  NO
Static polarizability                   ...  NO

Choice of electric origin               ... Center of mass
Position of electric origin             ...    -0.264144    -0.529522     0.122216

General magnetic properties:
Magnetizability                         ...  NO

EPR properties:
g-Tensor (aka g-matrix)                 ...  NO
Zero-Field splitting spin-orbit         ...  NO
Zero-field splitting spin-spin          ...  NO
Hyperfine couplings                     ...  NO (   0 nuclei)
Quadrupole couplings                    ...  NO (   0 nuclei)
Contact density                         ...  NO (   0 nuclei)

NMR properties:
Chemical shifts                         ...  NO (   0 nuclei)
Spin-rotation constants                 ...  NO (   0 nuclei)
Spin-spin couplings                     ...  NO (   0 nuclei,    0 pairs)

Choice of magnetic origin               ... GIAO
Position of magnetic origin             ...     0.000000     0.000000     0.000000

Properties with geometric perturbations:
SCF Hessian                             ...  NO
IR spectrum                             ...  NO
VCD spectrum                            ...  NO
X-ray spectroscopy properties:
SCF XES/XAS/RIXS spectra                ...  NO

SCF SOC stabilization energy            ...  NO
Diagonal Born-Oppenheimer correction    ...  NO

-------------
DIPOLE MOMENT
-------------

Method             : SCF
Type of density    : Electron Density
Multiplicity       :   1
Irrep              :   0
Energy             :  -796.2405823535267473 Eh
Basis              : AO
                                X                 Y                 Z
Electronic contribution:     -3.168538878      -4.020602396       1.058581467
Nuclear contribution   :      4.324622109       6.179651173      -1.552146675
                        -----------------------------------------
Total Dipole Moment    :      1.156083231       2.159048777      -0.493565208
                        -----------------------------------------
Magnitude (a.u.)       :      2.498324773
Magnitude (Debye)      :      6.350236912



--------------------
Rotational spectrum 
--------------------
 
Rotational constants in cm-1:             0.027102             0.010954             0.007813 
Rotational constants in MHz :           812.496437           328.396698           234.224916 

Dipole components along the rotational axes: 
x,y,z [a.u.] :     1.667886    -1.859967    -0.017429 
x,y,z [Debye]:     4.239430    -4.727661    -0.044302 

 

Dipole moment calculation done in   0.0 sec 

Maximum memory used throughout the entire PROP-calculation: 12.4 MB

--------------------------------
SUGGESTED CITATIONS FOR THIS RUN
--------------------------------

Below you find a list of papers that are relevant to this ORCA run
We neither can nor want to force you to cite these papers, but we appreciate if you do
You receive ORCA, which is the product of decades of hard work by many enthusiastic individuals, for free
The only thing we kindly ask in return is that you cite our papers,
We deeply appreciate it, if you show your appreciation for ORCA by not just citing the generic ORCA reference.

Please note that relegating all ORCA citations to the supporting information does *not* help us.
SI sections are not indexed - citations you put there will not count into any citation statistics
But we need these citations in order to attract the funding resources that allow us to do what we are doing

Therefore, if you are a happy ORCA user, please consider citing a few of the papers listed below in the main body of your paper

In addition to the list printed below, the program has created the file D:\Makaleler\coumarin-logp-working-source\dft\molecules\CMR_GOLD_044\input\CMR_GOLD_044_sp.bibtex that contains the list in bibtex format
You can import this file easily into all common literature databanks and citation aid programs

It goes without saying that in many instances, there are alternative algorithms to achieve similar
results as the ones you have gotten from ORCA. It is, of course, also the case that in some instances
ORCA just re-implements algorithms worked out by others. We are fully aware of that and we are also
fully appreciative of our colleagues work. Hence this citation list should not be read as indicating
that the listed papers, which are focused on our own work, are the only ones worth citing. It simply
meant to make it easier for users to cite ORCA specific papers. It is not a substitute for doing your
own literature research and citing the relevant literature in a scientifically appropriate manner.

List of essential papers. We consider these as the minimum necessary citations

  1. Neese, F.
     Software update: the ORCA program system, version 6.0
     WIRES Comput. Molec. Sci. 2025 15(1), e70019
     doi.org/10.1002/wcms.70019

List of papers to cite with high priority. The work reported in these papers was absolutely
necessary for this run to complete.
Our perspective: the developers of density functionals and basis sets usually get cited in chemistry papers
Good! But without the algorithms to do something with them, the functionals or basis sets would not do anything.
Hence, in our opinion, the algorithm design and method developments papers are equally worthy of getting cited

  1. Neese, F.
     An improvement of the resolution of the identity approximation for the formation of the Coulomb matrix
     J. Comp. Chem. 2003 24(14), 1740-1747
     doi.org/10.1002/jcc.10318
  2. Neese, F.; Wennmohs, F.; Hansen, A.; Becker, U.
     Efficient, approximate and parallel Hartree-Fock and hybrid DFT calculations. A 'chain-of-spheres' algorithm for the Hartree-Fock exchange
     Chem. Phys. 2009 356(1-3), 98-109
     doi.org/10.1016/j.chemphys.2008.10.036
  3. Grimme, S.; Antony, J.; Ehrlich, S.; Krieg, H.
     A consistent and accurate ab initio parametrization of density functional dispersion correction (DFT-D) for the 94 elements H-Pu
     J. Chem. Phys. 2010 132 , 154104
     doi.org/10.1063/1.3382344
  4. Grimme, S.; Ehrlich, S.; Goerigk, L.
     Effect of the damping function in dispersion corrected density functional theory
     J. Comput. Chem. 2011 32(7), 1456-1465
     doi.org/10.1002/jcc.21759
  5. Garcia-Rates, M.; Neese, F.
     Effect of the Solute Cavity on the Solvation Energy and its Derivatives within the Framework of the Gaussian Charge Scheme
     J. Comput. Chem. 2020 41 , 922-939
     doi.org/10.1002/jcc.26139
  6. Helmich-Paris, B.; de Souza, B.; Neese, F.; Izsák, R.
     An improved chain of spheres for exchange algorithm
     J. Chem. Phys. 2021 155(10), 104109
     doi.org/10.1063/5.0058766
  7. Neese, F.
     The SHARK Integral Generation and Digestion System
     J. Comp. Chem. 2022 44(3), 381
     doi.org/10.1002/jcc.26942

List of suggested additional citations. These are papers that are important in the 'surrounding' of 
of this run, or papers that preceded the highly important papers. If you like your results we are grateful for a citation.

  1. Izsak, R.; Neese, F.
     An overlap fitted chain of spheres exchange method
     J. Chem. Phys. 2011 135 , 144105
     doi.org/10.1063/1.3646921
  2. Izsak, R.; Hansen, A.; Neese, F.
     The resolution of identity and chain of spheres approximations for the LPNO-CCSD singles Fock term
     Molec. Phys. 2012 110 , 2413-2417
     doi.org/10.1080/00268976.2012.687466
  3. Neese, F.
     The ORCA program system
     WIRES Comput. Molec. Sci. 2012 2(1), 73-78
     doi.org/10.1002/wcms.81
  4. Izsak, R.; Neese, F.; Klopper, W.
     Robust fitting techniques in the chain of spheres approximation to the Fock exchange: The role of the complementary space
     J. Chem. Phys. 2013 139 , 
     doi.org/10.1063/1.4819264
  5. Neese, F.
     Software update: the ORCA program system, version 4.0
     WIRES Comput. Molec. Sci. 2018 8(1), 1-6
     doi.org/10.1002/wcms.1327
  6. Neese, F.; Wennmohs, F.; Becker, U.; Riplinger, C.
     The ORCA quantum chemistry program package
     J. Chem. Phys. 2020 152(22), 224108
     doi.org/10.1063/5.0004608
  7. Neese, F.
     Software update: The ORCA program system—Version 5.0
     WIRES Comput. Molec. Sci. 2022 12(1), e1606
     doi.org/10.1002/wcms.1606

List of optional additional citations

  1. Neese, F.
     Approximate second-order SCF convergence for spin unrestricted wavefunctions
     Chem. Phys. Lett. 2000 325(1-3), 93-98
     doi.org/10.1016/s0009-2614(00)00662-x

Timings for individual modules:

Sum of individual times          ...       18.577 sec (=   0.310 min)
Startup calculation              ...        1.611 sec (=   0.027 min)   8.7 %
SCF iterations                   ...       16.086 sec (=   0.268 min)  86.6 %
Property calculations            ...        0.880 sec (=   0.015 min)   4.7 %
                             ****ORCA TERMINATED NORMALLY****
TOTAL RUN TIME: 0 days 0 hours 0 minutes 19 seconds 200 msec
