
                                 *****************
                                 * O   R   C   A *
                                 *****************

                                            #,                                       
                                            ###                                      
                                            ####                                     
                                            #####                                    
                                            ######                                   
                                           ########,                                 
                                     ,,################,,,,,                         
                               ,,#################################,,                 
                          ,,##########################################,,             
                       ,#########################################, ''#####,          
                    ,#############################################,,   '####,        
                  ,##################################################,,,,####,       
                ,###########''''           ''''###############################       
              ,#####''   ,,,,##########,,,,          '''####'''          '####       
            ,##' ,,,,###########################,,,                        '##       
           ' ,,###''''                  '''############,,,                           
         ,,##''                                '''############,,,,        ,,,,,,###''
      ,#''                                            '''#######################'''  
     '                                                          ''''####''''         
             ,#######,   #######,   ,#######,      ##                                
            ,#'     '#,  ##    ##  ,#'     '#,    #''#        ,####,    ,#,          
            ##       ##  ##   ,#'  ##            #'  '#       #'       ,# #          
            ##       ##  #######   ##           ,######,      #####,      #          
            '#,     ,#'  ##    ##  '#,     ,#' ,#      #,     #,   #      #          
             '#######'   ##     ##  '#######'  #'      '#     '####' #    #          



                #########################################################
                #                        -***-                          #
                #          Department of theory and spectroscopy        #
                #                                                       #
                #                      Frank Neese                      #
                #                                                       #
                #     Directorship, Architecture, Infrastructure        #
                #                    SHARK, DRIVERS                     #
                #        Core code/Algorithms in most modules           #
                #                                                       #
                #        Max Planck Institute fuer Kohlenforschung      #
                #                Kaiser Wilhelm Platz 1                 #
                #                 D-45470 Muelheim/Ruhr                 #
                #                      Germany                          #
                #                                                       #
                #                  All rights reserved                  #
                #                        -***-                          #
                #########################################################


                         Program Version 6.1.1  -  RELEASE   -


 With contributions from (in alphabetic order):
[Max-Planck-Institut fuer Kohlenforschung]                               
  Daniel Aravena         : Magnetic Suceptibility                        
  Michael Atanasov       : Ab Initio Ligand Field Theory (pilot matlab implementation)
  Alexander A. Auer      : GIAO ZORA, VPT2 properties, NMR spectrum      
  Ute Becker             : All parallelization in ORCA, NUMFREQ, NUMCALC 
  Giovanni Bistoni       : ED, misc. LED, open-shell LED, HFLD           
  Dmytro Bykov           : pre 5.0 version of the SCF Hessian            
  Marcos Casanova-Páez   : Triplet and SCS-CIS(D). UHF-(DLPNO)-IP/EA/STEOM-CCSD. UHF-CVS-IP/STEOM-CCSD   
  Vijay G. Chilkuri      : MRCI spin determinant printing, contributions to CSF-ICE 
  Pauline Colinet        : FMM embedding                                 
  Dipayan Datta          : RHF DLPNO-CCSD density                        
  Achintya Kumar Dutta   : EOM-CC, STEOM-CC                              
  Nicolas Foglia         : Exact transition moments, OPA infrastructure, MCD improvements    
  Dmitry Ganyushin       : Spin-Orbit,Spin-Spin,Magnetic field MRCI      
  Miquel Garcia-Rates    : C-PCM and meta-GGA Hessian, CCSD/C-PCM, Gaussian charge scheme 
  Tiago L. C. Gouveia    : GS-ROHF, GS-ROCIS                             
  Yang Guo               : DLPNO-NEVPT2, F12-NEVPT2, CIM, IAO-localization        
  Andreas Hansen         : Spin unrestricted coupled pair/coupled cluster methods 
  Ingolf Harden          : AUTO-CI MPn and infrastructure                
  Benjamin Helmich-Paris : MC-RPA, TRAH-(SCF,CASSCF), AVAS, COSX integrals, SCF dyn. polar., MC-PDFT, srDFT 
  Lee Huntington         : MR-EOM, pCC                                   
  Robert Izsak           : Overlap fitted RIJCOSX, COSX-SCS-MP3, EOM     
  Riya Kayal             : Wick's Theorem for AUTO-CI, AUTO-CI UHF-CCSDT 
  Emily Kempfer          : AUTO-CI RHF CISDT and CCSDT, approximate NEVPT4
  Christian Kollmar      : KDIIS, OOCD, Brueckner-CCSD(T), CCSD density, CASPT2, CASPT2-K, improved NEVPT2 
  Axel Koslowski         : Symmetry handling                             
  Simone Kossmann        : meta-GGA functionals, TD-DFT gradient, OOMP2, (MP2 Hessian; deprecated post 5.0) 
  Lucas Lang             : DCDCAS, Hyperfine gauge corrections, ICE-SOC+SSC
  Marvin Lechner         : AUTO-CI (C++ implementation), FIC-MRCC        
  Spencer Leger          : CASSCF response                               
  Dagmar Lenk            : GEPOL surface, SMD, ORCA-2-JSON               
  Dimitrios Liakos       : Extrapolation schemes; Compound Job, Property file
  Dimitrios Manganas     : Further ROCIS development; embedding schemes. LFT, Crystal Embedding 
  Dimitrios Pantazis     : SARC Basis sets                               
  Anastasios Papadopoulos: AUTO-CI, single reference methods and gradients 
  Taras Petrenko         : pre 6.0 DFT Hessian and TD-DFT gradient,  ECA, NRVS 
  Petra Pikulova         : Analytic Raman intensities                    
  Peter Pinski           : DLPNO-MP2, DLPNO-MP2 Gradient                 
  Shashank Vittal Rao    : ES-AILFT, MagRelax                            
  Christoph Reimann      : Effective Core Potentials                     
  Marius Retegan         : Local ZFS, SOC                                
  Christoph Riplinger    : Optimizer, TS searches, QM/MM, DLPNO-CCSD(T), (RO)-DLPNO pert. Triples 
  Michael Roemelt        : Original ROCIS implementation, recursive CI coupling coefficients
  Masaaki Saitow         : Open-shell DLPNO-CCSD energy and density      
  Barbara Sandhoefer     : DKH picture change effects                    
  Yorick L. A. Schmerwitz: GMF and freeze-and-release deltaSCF, NEB S-IDPP initial path                    
  Kantharuban Sivalingam : CASSCF convergence/infrastructure, NEVPT2, NEVPT3, NEVPT4(SD), FIC-MRCI and CEPA variants
  Bernardo de Souza      : ESD, SOC TD-DFT                               
  Georgi L. Stoychev     : AutoAux, RI-MP2 NMR, DLPNO-MP2 response, X2C  
  Van Anh Tran           : RI-MP2 g-tensors                              
  Willem Van den Heuvel  : Paramagnetic NMR                              
  Zikuan Wang            : NOTCH, Electric field optimization            
  Frank Wennmohs         : Technical directorship and infrastructure     
  Hang Xu                : AUTO-CI-Response properties                   
                                                                         
[FACCTs GmbH]                                                            
  Markus Bursch, Nicolas Foglia, Miquel Garcia-Rates, Ingolf Harden, Hagen Neugebauer, Anastasios Papadopoulos, 
  Christoph Riplinger, Bernardo de Souza, Georgi L. Stoychev                                                    
                                                                 
  APM, various basis sets, CI-OPT, improved COSX, DLPNO-Multilevel,           
  DOCKER, DRACO, updates on ESD, Fragmentator, GOAT, IRC, LR-CPCM, L-BFGS, MBIS, meta-GGA TD-DFT gradient, ML-optimized integration grids, 
  MM, NACMEs, nearIR, NEB, NEB-TS, NL-DFT gradient (VV10), 2- and 3-layer-ONIOM, interface openCOSMO-RS, QMMM,   
  Crystal-QMMM, RESP, rigid body optimization, SF, symmetry and pop. for TD-DFT, various functionals, SOLVATOR                                   
                                                                         
[Other institutions]                                                     
  V. Asgeirsson          : NEB                                           
  Christoph Bannwarth    : sTDA-DFT, sTD-DFT, PBEh-3c, B97-3c, D3        
  Giovanni Bistoni       : ETS/NOCV, ADLD/ADEX, COVALED                  
  Martin Brehm           : Molecular dynamics                            
  Ronald Cardenas        : ETS/NOCV                                      
  Martina Colucci        : COVALED                                       
  Sebastian Ehlert       : rSCAN, r2SCAN, r2SCAN-3c, D4, dhf basis sets  
  Marvin Friede          : D4 for Fr, Ra, Ac-Lr                          
  Lars Goerigk           : TD-DFT with DH, B97 family of functionals     
  Stefan Grimme          : VdW corrections, initial TS optimization, DFT functionals, gCP, sTDA/sTD-DF 
  Waldemar Hujo          : DFT-NL                                        
  H. Jonsson             : NEB                                           
  Holger Kruse           : gCP                                           
  Marcel Mueller         : wB97X-3c, vDZP basis set                      
  Hagen Neugebauer       : wr2SCAN, Native XTB                           
  Gianluca Regni         : ADLD/ADEX                                     
  Tobias Risthaus        : pre 6.0 range-separated hybrid DFT and stability analysis
  Lukas Wittmann         : regularized MP2, r2SCAN double-hybrids, wr2SCAN        
                                                                         
We gratefully acknowledge several colleagues who have allowed us to      
interface, adapt or use parts of their codes:                            
  Ed Valeev, F. Pavosevic, A. Kumar             : LibInt (2-el integral package), F12 methods 
  Garnet Chan, S. Sharma, J. Yang, R. Olivares  : DMRG                   
  Ulf Ekstrom                                   : XCFun DFT Library      
  Mihaly Kallay                                 : mrcc  (arbitrary order and MRCC methods)
  Frank Weinhold                                : gennbo (NPA and NBO analysis)           
  Simon Mueller                                 : openCOSMO-RS                            
  Christopher J. Cramer and Donald G. Truhlar   : smd solvation model                     
  S Lehtola, MJT Oliveira, MAL Marques          : LibXC Library                           
  Liviu Ungur et al                             : ANISO software                          


 Your calculation uses the libint2 library for the computation of 2-el integrals
 For citations please refer to: http://libint.valeyev.net

 Your ORCA version has been built with support for libXC version: 7.0.0
 For citations please refer to: https://libxc.gitlab.io

 This ORCA versions uses:
   CBLAS   interface :  Fast vector & matrix operations
   LAPACKE interface :  Fast linear algebra routines
   Shared memory     :  Shared parallel matrices


  ***********************************
  * Starting time: Tue Jun  2 10:37:58 2026
  * Host name:     AHMET
  * Process ID:    33928
  * Working dir.:  D:\Makaleler\coumarin-logp-working-source\dft\molecules\CMR_GOLD_044
  ***********************************

NOTE: MaxCore=3000 MB was set to SCF,MP2,MDCI,CIPSI,MRCI,RASCI and CIS
      => If you want to overwrite this, your respective input block should be placed after the MaxCore statement


***************************************
The coordinates will be read from file: input/CMR_GOLD_044_start.xyz
***************************************


Your calculation utilizes the atom-pairwise dispersion correction
with the Becke-Johnson damping scheme (D3BJ)


================================================================================

----- Orbital basis set information -----
Your calculation utilizes the basis: def2-SVP
   F. Weigend and R. Ahlrichs, Phys. Chem. Chem. Phys. 7, 3297 (2005).

----- AuxJ basis set information -----
Your calculation utilizes the auxiliary basis: def2/J
   H-Rn: F. Weigend, Phys. Chem. Chem. Phys. 8, 1057 (2006).
   Fr-Lr: K. Eichkorn, F. Weigend, O. Treutler, R. Ahlrichs; Theor. Chem. Acc. 97, 119 (1997).

================================================================================
                                        WARNINGS
                       Please study these warnings very carefully!
================================================================================


WARNING: Geometry Optimization
  ===> : Switching off AutoStart
         For restart on a previous wavefunction, please use MOREAD

================================================================================
                                       INPUT FILE
================================================================================
NAME = D:\Makaleler\coumarin-logp-working-source\dft\molecules\CMR_GOLD_044\input\CMR_GOLD_044_optfreq.inp
|  1> ! B3LYP D3BJ def2-SVP TightSCF RIJCOSX def2/J CPCM(Water) Opt Freq

|  2> 

|  3> %pal

|  4>   nprocs 8

|  5> end

|  6> 

|  7> %maxcore 3000

|  8> 

|  9> %scf

| 10>   MaxIter 500

| 11> end

| 12> 

| 13> %output

| 14>   Print[P_Mulliken] 1

| 15>   Print[P_Loewdin] 1

| 16> end

| 17> 

| 18> * xyzfile 0 1 input/CMR_GOLD_044_start.xyz

| 19> 
| 20>                          ****END OF INPUT****
================================================================================

                       *****************************
                       * Geometry Optimization Run *
                       *****************************

Geometry optimization settings:
Update method            Update   .... BFGS
Choice of coordinates    CoordSys .... (2022) Redundant Internals
Initial Hessian          InHess   .... Almloef's Model
Max. no of cycles        MaxIter  .... 75

Convergence Tolerances:
Energy Change            TolE     ....  5.0000e-06 Eh
Max. Gradient            TolMAXG  ....  3.0000e-04 Eh/bohr
RMS Gradient             TolRMSG  ....  1.0000e-04 Eh/bohr
Max. Displacement        TolMAXD  ....  4.0000e-03 bohr
RMS Displacement         TolRMSD  ....  2.0000e-03 bohr
Strict Convergence                .... False

------------------------------------------------------------------------------
                        ORCA OPTIMIZATION COORDINATE SETUP
------------------------------------------------------------------------------

The optimization will be done in redundant internal coordinates (2022)
Making redundant internal coordinates   ...  (2022 redundants) done
Evaluating the initial hessian          ...  (Almloef) done
Evaluating the coordinates              ...  done
Calculating the B-matrix                .... done
Calculating the G-matrix                .... done
The number of degrees of freedom        ....  128

    -----------------------------------------------------------------
                    Redundant Internal Coordinates


    -----------------------------------------------------------------
         Definition                    Initial Value    Approx d2E/dq
    -----------------------------------------------------------------
      1. B(C   1,O   0)                  1.2256         1.023800   
      2. B(O   2,C   1)                  1.3778         0.585207   
      3. B(C   3,O   2)                  1.4045         0.530593   
      4. B(C   4,C   3)                  1.3976         0.607682   
      5. B(C   5,C   4)                  1.3896         0.625615   
      6. B(C   6,C   5)                  1.3918         0.620724   
      7. B(C   7,C   6)                  1.4015         0.598857   
      8. B(C   8,C   7)                  1.4037         0.594208   
      9. B(C   8,C   3)                  1.3974         0.607998   
     10. B(C   9,C   8)                  1.4858         0.439481   
     11. B(C  10,C   9)                  1.4461         0.508350   
     12. B(N  11,C  10)                  1.3420         0.667566   
     13. B(O  12,N  11)                  1.3925         0.496533   
     14. B(C  13,O  12)                  1.3617         0.620938   
     15. B(C  14,C  13)                  1.4724         0.461609   
     16. B(N  15,C  13)                  1.3122         0.744617   
     17. B(N  15,C  10)                  1.3801         0.580240   
     18. B(C  16,C   9)                  1.3472         0.731173   
     19. B(C  16,C   1)                  1.4642         0.475754   
     20. B(H  17,C   4)                  1.0866         0.364603   
     21. B(H  18,C   5)                  1.0869         0.364268   
     22. B(H  19,C   6)                  1.0879         0.362927   
     23. B(H  20,C   7)                  1.0868         0.364293   
     24. B(H  21,C  14)                  1.0940         0.354895   
     25. B(H  22,C  14)                  1.0940         0.354810   
     26. B(H  23,C  14)                  1.0940         0.354894   
     27. B(H  24,C  16)                  1.0864         0.364939   
     28. A(O   0,C   1,C  16)          120.6466         0.450064   
     29. A(O   2,C   1,C  16)          117.0676         0.407131   
     30. A(O   0,C   1,O   2)          122.2807         0.464275   
     31. A(C   1,O   2,C   3)          120.5007         0.412401   
     32. A(C   4,C   3,C   8)          122.6004         0.430986   
     33. A(O   2,C   3,C   4)          115.5472         0.417877   
     34. A(O   2,C   3,C   8)          121.8474         0.417916   
     35. A(C   3,C   4,C   5)          119.4591         0.433204   
     36. A(C   5,C   4,H  17)          120.2779         0.354193   
     37. A(C   3,C   4,H  17)          120.2622         0.352453   
     38. A(C   4,C   5,C   6)          119.4819         0.434862   
     39. A(C   4,C   5,H  18)          120.2570         0.354138   
     40. A(C   6,C   5,H  18)          120.2600         0.353667   
     41. A(C   5,C   6,C   7)          120.3694         0.431457   
     42. A(C   7,C   6,H  19)          119.7000         0.351308   
     43. A(C   5,C   6,H  19)          119.9306         0.353446   
     44. A(C   6,C   7,C   8)          121.2840         0.428090   
     45. A(C   6,C   7,H  20)          117.1500         0.351531   
     46. A(C   8,C   7,H  20)          121.5656         0.351069   
     47. A(C   7,C   8,C   9)          123.6989         0.405154   
     48. A(C   3,C   8,C   9)          119.4984         0.406800   
     49. A(C   3,C   8,C   7)          116.7942         0.429255   
     50. A(C  10,C   9,C  16)          118.5587         0.431450   
     51. A(C   8,C   9,C  16)          115.7306         0.420351   
     52. A(C   8,C   9,C  10)          125.7090         0.394182   
     53. A(C   9,C  10,N  11)          127.2536         0.421708   
     54. A(N  11,C  10,N  15)          113.6746         0.428998   
     55. A(C   9,C  10,N  15)          119.0472         0.411316   
     56. A(C  10,N  11,O  12)          103.9536         0.414463   
     57. A(N  11,O  12,C  13)          106.4530         0.409173   
     58. A(C  14,C  13,N  15)          129.9375         0.422672   
     59. A(O  12,C  13,N  15)          113.2981         0.442897   
     60. A(O  12,C  13,C  14)          116.7642         0.409232   
     61. A(H  22,C  14,H  23)          108.2247         0.289502   
     62. A(H  21,C  14,H  23)          108.5504         0.289513   
     63. A(C  13,C  14,H  23)          110.5386         0.335051   
     64. A(H  21,C  14,H  22)          108.2252         0.289503   
     65. A(C  13,C  14,H  22)          110.6830         0.335038   
     66. A(C  13,C  14,H  21)          110.5376         0.335051   
     67. A(C  10,N  15,C  13)          102.6140         0.437509   
     68. A(C   1,C  16,C   9)          125.2672         0.426352   
     69. A(C   9,C  16,H  24)          121.4274         0.363776   
     70. A(C   1,C  16,H  24)          113.2962         0.338307   
     71. D(C   3,O   2,C   1,O   0)   -177.9216         0.024934   
     72. D(C   3,O   2,C   1,C  16)      2.8958         0.024934   
     73. D(C   4,C   3,O   2,C   1)    177.3822         0.020300   
     74. D(C   8,C   3,O   2,C   1)     -1.8246         0.020300   
     75. D(H  17,C   4,C   3,O   2)      0.9618         0.025493   
     76. D(C   5,C   4,C   3,C   8)      0.4859         0.025493   
     77. D(H  17,C   4,C   3,C   8)   -179.8381         0.025493   
     78. D(C   5,C   4,C   3,O   2)   -178.7142         0.025493   
     79. D(H  18,C   5,C   4,H  17)      0.2621         0.027113   
     80. D(H  18,C   5,C   4,C   3)    179.9380         0.027113   
     81. D(C   6,C   5,C   4,H  17)   -179.3692         0.027113   
     82. D(C   6,C   5,C   4,C   3)      0.3067         0.027113   
     83. D(H  19,C   6,C   5,C   4)    179.5652         0.026665   
     84. D(C   7,C   6,C   5,C   4)     -0.3549         0.026665   
     85. D(C   7,C   6,C   5,H  18)   -179.9862         0.026665   
     86. D(H  19,C   6,C   5,H  18)     -0.0661         0.026665   
     87. D(H  20,C   7,C   6,H  19)     -0.5546         0.024718   
     88. D(H  20,C   7,C   6,C   5)    179.3656         0.024718   
     89. D(C   8,C   7,C   6,H  19)    179.6993         0.024718   
     90. D(C   8,C   7,C   6,C   5)     -0.3805         0.024718   
     91. D(C   9,C   8,C   7,H  20)      0.3089         0.024316   
     92. D(C   3,C   8,C   7,H  20)   -178.6215         0.024316   
     93. D(C   3,C   8,C   7,C   6)      1.1133         0.024316   
     94. D(C   9,C   8,C   3,C   4)    179.8464         0.025521   
     95. D(C   7,C   8,C   3,C   4)     -1.1760         0.025521   
     96. D(C   9,C   8,C   7,C   6)   -179.9563         0.024316   
     97. D(C   9,C   8,C   3,O   2)     -1.0031         0.025521   
     98. D(C   7,C   8,C   3,O   2)    177.9745         0.025521   
     99. D(C  16,C   9,C   8,C   3)      2.5170         0.013180   
    100. D(C  10,C   9,C   8,C   7)      4.1105         0.013180   
    101. D(C  10,C   9,C   8,C   3)   -176.9864         0.013180   
    102. D(C  16,C   9,C   8,C   7)   -176.3861         0.013180   
    103. D(N  15,C  10,C   9,C  16)     27.0649         0.017609   
    104. D(N  15,C  10,C   9,C   8)   -153.4445         0.017609   
    105. D(N  11,C  10,C   9,C  16)   -151.0100         0.017609   
    106. D(N  11,C  10,C   9,C   8)     28.4806         0.017609   
    107. D(O  12,N  11,C  10,N  15)      0.8397         0.033084   
    108. D(O  12,N  11,C  10,C   9)    179.0021         0.033084   
    109. D(C  13,O  12,N  11,C  10)     -0.5244         0.018341   
    110. D(N  15,C  13,O  12,N  11)      0.0527         0.028294   
    111. D(C  14,C  13,O  12,N  11)   -179.8098         0.028294   
    112. D(H  23,C  14,C  13,O  12)    -60.0593         0.015709   
    113. D(H  22,C  14,C  13,N  15)      0.2096         0.015709   
    114. D(H  22,C  14,C  13,O  12)   -179.9551         0.015709   
    115. D(H  21,C  14,C  13,N  15)   -119.6861         0.015709   
    116. D(H  21,C  14,C  13,O  12)     60.1492         0.015709   
    117. D(C  10,N  15,C  13,C  14)   -179.7318         0.042045   
    118. D(C  10,N  15,C  13,O  12)      0.4283         0.042045   
    119. D(C  13,N  15,C  10,N  11)     -0.8034         0.024488   
    120. D(C  13,N  15,C  10,C   9)   -179.1303         0.024488   
    121. D(H  24,C  16,C   9,C  10)     -0.6956         0.037944   
    122. D(H  24,C  16,C   9,C   8)    179.7635         0.037944   
    123. D(C   1,C  16,C   9,C  10)    178.1262         0.037944   
    124. D(C   1,C  16,C   9,C   8)     -1.4147         0.037944   
    125. D(H  24,C  16,C   1,O   2)    177.6427         0.015411   
    126. D(H  24,C  16,C   1,O   0)     -1.5541         0.015411   
    127. D(C   9,C  16,C   1,O   2)     -1.2627         0.015411   
    128. D(C   9,C  16,C   1,O   0)    179.5405         0.015411   
    -----------------------------------------------------------------

Number of atoms                         .... 25
Number of degrees of freedom            .... 128


         *************************************************************
         *                GEOMETRY OPTIMIZATION CYCLE   1            *
         *************************************************************
---------------------------------
CARTESIAN COORDINATES (ANGSTROEM)
---------------------------------
  O     -0.784207   -3.965527    0.830998
  C     -0.959054   -2.766503    0.647178
  O     -2.213779   -2.197250    0.647725
  C     -2.374557   -0.826010    0.389969
  C     -3.695000   -0.369177    0.359845
  C     -3.949072    0.969088    0.084885
  C     -2.885082    1.831545   -0.162386
  C     -1.566373    1.358134   -0.127578
  C     -1.281659    0.014663    0.162763
  C      0.094177   -0.543810    0.214757
  C      1.318006    0.211413    0.062388
  N      1.519268    1.502505    0.368128
  O      2.858675    1.717269    0.053398
  C      3.343019    0.529113   -0.402548
  C      4.760369    0.499634   -0.800307
  N      2.445202   -0.427864   -0.412521
  C      0.179029   -1.870406    0.433608
  H     -4.516445   -1.056047    0.544709
  H     -4.971019    1.338060    0.057213
  H     -3.075994    2.879058   -0.385395
  H     -0.776602    2.074263   -0.338908
  H      5.402127    0.759980    0.046524
  H      5.042952   -0.497805   -1.149824
  H      4.946680    1.211379   -1.609914
  H      1.139338   -2.375705    0.485293

----------------------------
CARTESIAN COORDINATES (A.U.)
----------------------------
  NO LB      ZA    FRAG     MASS         X           Y           Z
   0 O     8.0000    0    15.999   -1.481937   -7.493760    1.570359
   1 C     6.0000    0    12.011   -1.812349   -5.227934    1.222989
   2 O     8.0000    0    15.999   -4.183436   -4.152200    1.224023
   3 C     6.0000    0    12.011   -4.487262   -1.560933    0.736935
   4 C     6.0000    0    12.011   -6.982538   -0.697643    0.680009
   5 C     6.0000    0    12.011   -7.462665    1.831312    0.160409
   6 C     6.0000    0    12.011   -5.452014    3.461119   -0.306866
   7 C     6.0000    0    12.011   -2.960017    2.566500   -0.241087
   8 C     6.0000    0    12.011   -2.421984    0.027709    0.307577
   9 C     6.0000    0    12.011    0.177969   -1.027652    0.405832
  10 C     6.0000    0    12.011    2.490671    0.399513    0.117897
  11 N     7.0000    0    14.007    2.871001    2.839322    0.695661
  12 O     8.0000    0    15.999    5.402113    3.245167    0.100908
  13 C     6.0000    0    12.011    6.317390    0.999879   -0.760706
  14 C     6.0000    0    12.011    8.995794    0.944171   -1.512361
  15 N     7.0000    0    14.007    4.620762   -0.808546   -0.779552
  16 C     6.0000    0    12.011    0.338316   -3.534555    0.819400
  17 H     1.0000    0     1.008   -8.534844   -1.995639    1.029351
  18 H     1.0000    0     1.008   -9.393864    2.528567    0.108117
  19 H     1.0000    0     1.008   -5.812786    5.440631   -0.728291
  20 H     1.0000    0     1.008   -1.467564    3.919788   -0.640443
  21 H     1.0000    0     1.008   10.208540    1.436154    0.087918
  22 H     1.0000    0     1.008    9.529799   -0.940714   -2.172852
  23 H     1.0000    0     1.008    9.347870    2.289174   -3.042297
  24 H     1.0000    0     1.008    2.153036   -4.489433    0.917071

--------------------------------
INTERNAL COORDINATES (ANGSTROEM)
--------------------------------
 O      0   0   0     0.000000000000     0.00000000     0.00000000
 C      1   0   0     1.225568765735     0.00000000     0.00000000
 O      2   1   0     1.377819024741   122.28067297     0.00000000
 C      3   2   1     1.404487660610   120.50072949   182.07835739
 C      4   3   2     1.397560558981   115.54719567   177.38219715
 C      5   4   3     1.389643501307   119.45913989   181.28578606
 C      6   5   4     1.391780057771   119.48193512     0.30671040
 C      7   6   5     1.401542547717   120.36935551   359.64512048
 C      4   3   2     1.397419009566   121.84744382   358.17544291
 C      9   4   3     1.485772477397   119.49837273   358.99686965
 C     10   9   4     1.446144793233   125.70895926   183.01361022
 N     11  10   9     1.341976292159   127.25362405    28.48062639
 O     12  11  10     1.392547519856   103.95359222   179.00207928
 C     13  12  11     1.361686404541   106.45295037   359.47561348
 C     14  13  12     1.472400235113   116.76420447   180.19015565
 N     14  13  12     1.312242211644   113.29814781     0.05268403
 C     10   9   4     1.347201763398   115.73056254     2.51695898
 H      5   4   3     1.086617128291   120.26220305     0.96177551
 H      6   5   4     1.086867145216   120.25701591   179.93800790
 H      7   6   5     1.087871003073   119.93057758   179.56515459
 H      8   7   6     1.086849021227   117.14997974   179.36558647
 H     15  14  13     1.093963091966   110.53755784    60.14919392
 H     15  14  13     1.094028857812   110.68297646   180.04488169
 H     15  14  13     1.093963831781   110.53861746   299.94065848
 H     17  10   9     1.086366230556   121.42742932   179.76351571

---------------------------
INTERNAL COORDINATES (A.U.)
---------------------------
 O      0   0   0     0.000000000000     0.00000000     0.00000000
 C      1   0   0     2.315989325526     0.00000000     0.00000000
 O      2   1   0     2.603700618868   122.28067297     0.00000000
 C      3   2   1     2.654097037024   120.50072949   182.07835739
 C      4   3   2     2.641006712045   115.54719567   177.38219715
 C      5   4   3     2.626045641254   119.45913989   181.28578606
 C      6   5   4     2.630083147840   119.48193512     0.30671040
 C      7   6   5     2.648531580224   120.36935551   359.64512048
 C      4   3   2     2.640739222415   121.84744382   358.17544291
 C      9   4   3     2.807703079598   119.49837273   358.99686965
 C     10   9   4     2.732817609206   125.70895926   183.01361022
 N     11  10   9     2.535967670395   127.25362405    28.48062639
 O     12  11  10     2.631533441000   103.95359222   179.00207928
 C     13  12  11     2.573214384867   106.45295037   359.47561348
 C     14  13  12     2.782433203884   116.76420447   180.19015565
 N     14  13  12     2.479778401378   113.29814781     0.05268403
 C     10   9   4     2.545842379957   115.73056254     2.51695898
 H      5   4   3     2.053408784898   120.26220305     0.96177551
 H      6   5   4     2.053881248415   120.25701591   179.93800790
 H      7   6   5     2.055778264841   119.93057758   179.56515459
 H      8   7   6     2.053846999039   117.14997974   179.36558647
 H     15  14  13     2.067290644433   110.53755784    60.14919392
 H     15  14  13     2.067414923870   110.68297646   180.04488169
 H     15  14  13     2.067292042481   110.53861746   299.94065848
 H     17  10   9     2.052934656892   121.42742932   179.76351571

---------------------
BASIS SET INFORMATION
---------------------
There are 4 groups of distinct atoms

 Group   1 Type O   : 7s4p1d contracted to 3s2p1d pattern {511/31/1}
 Group   2 Type C   : 7s4p1d contracted to 3s2p1d pattern {511/31/1}
 Group   3 Type N   : 7s4p1d contracted to 3s2p1d pattern {511/31/1}
 Group   4 Type H   : 4s1p contracted to 2s1p pattern {31/1}

Atom   0O    basis set group =>   1
Atom   1C    basis set group =>   2
Atom   2O    basis set group =>   1
Atom   3C    basis set group =>   2
Atom   4C    basis set group =>   2
Atom   5C    basis set group =>   2
Atom   6C    basis set group =>   2
Atom   7C    basis set group =>   2
Atom   8C    basis set group =>   2
Atom   9C    basis set group =>   2
Atom  10C    basis set group =>   2
Atom  11N    basis set group =>   3
Atom  12O    basis set group =>   1
Atom  13C    basis set group =>   2
Atom  14C    basis set group =>   2
Atom  15N    basis set group =>   3
Atom  16C    basis set group =>   2
Atom  17H    basis set group =>   4
Atom  18H    basis set group =>   4
Atom  19H    basis set group =>   4
Atom  20H    basis set group =>   4
Atom  21H    basis set group =>   4
Atom  22H    basis set group =>   4
Atom  23H    basis set group =>   4
Atom  24H    basis set group =>   4
---------------------------------
AUXILIARY/J BASIS SET INFORMATION
---------------------------------
There are 4 groups of distinct atoms

 Group   1 Type O   : 12s5p4d2f1g contracted to 6s4p3d1f1g pattern {711111/2111/211/2/1}
 Group   2 Type C   : 12s5p4d2f1g contracted to 6s4p3d1f1g pattern {711111/2111/211/2/1}
 Group   3 Type N   : 12s5p4d2f1g contracted to 6s4p3d1f1g pattern {711111/2111/211/2/1}
 Group   4 Type H   : 5s2p1d contracted to 3s1p1d pattern {311/2/1}

Atom   0O    basis set group =>   1
Atom   1C    basis set group =>   2
Atom   2O    basis set group =>   1
Atom   3C    basis set group =>   2
Atom   4C    basis set group =>   2
Atom   5C    basis set group =>   2
Atom   6C    basis set group =>   2
Atom   7C    basis set group =>   2
Atom   8C    basis set group =>   2
Atom   9C    basis set group =>   2
Atom  10C    basis set group =>   2
Atom  11N    basis set group =>   3
Atom  12O    basis set group =>   1
Atom  13C    basis set group =>   2
Atom  14C    basis set group =>   2
Atom  15N    basis set group =>   3
Atom  16C    basis set group =>   2
Atom  17H    basis set group =>   4
Atom  18H    basis set group =>   4
Atom  19H    basis set group =>   4
Atom  20H    basis set group =>   4
Atom  21H    basis set group =>   4
Atom  22H    basis set group =>   4
Atom  23H    basis set group =>   4
Atom  24H    basis set group =>   4


           ************************************************************
           *        Program running with 8 parallel MPI-processes     *
           *              working on a common directory               *
           ************************************************************
------------------------------------------------------------------------------
                             ORCA STARTUP CALCULATIONS
                           -- RI-GTO INTEGRALS CHOSEN --
------------------------------------------------------------------------------
------------------------------------------------------------------------------
                   ___                                                        
                  /   \      - P O W E R E D   B Y -                         
                 /     \                                                     
                 |  |  |   _    _      __       _____    __    __             
                 |  |  |  | |  | |    /  \     |  _  \  |  |  /  |          
                  \  \/   | |  | |   /    \    | | | |  |  | /  /          
                 / \  \   | |__| |  /  /\  \   | |_| |  |  |/  /          
                |  |  |   |  __  | /  /__\  \  |    /   |      \           
                |  |  |   | |  | | |   __   |  |    \   |  |\   \          
                \     /   | |  | | |  |  |  |  | |\  \  |  | \   \       
                 \___/    |_|  |_| |__|  |__|  |_| \__\ |__|  \__/        
                                                                              
                      - O R C A' S   B I G   F R I E N D -                    
                                      &                                       
                       - I N T E G R A L  F E E D E R -                       
                                                                              
 v1 FN, 2020, v2 2021, v3 2022-2024                                           
------------------------------------------------------------------------------


----------------------
SHARK INTEGRAL PACKAGE
----------------------

Number of atoms                             ...     25
Number of basis functions                   ...    278
Number of shells                            ...    126
Maximum angular momentum                    ...      2
Integral batch strategy                     ... SHARK/LIBINT Hybrid
RI-J (if used) integral strategy            ... SPLIT-RIJ (Revised 2003 algorithm where possible)
Printlevel                                  ...      1
Contraction scheme used                     ... SEGMENTED contraction
Prescreening option                         ... SCHWARTZ
   Thresh                                   ... 2.500e-11
   Tcut                                     ... 2.500e-12
   Tpresel                                  ... 2.500e-12 
Coulomb Range Separation                    ... NOT USED
Exchange Range Separation                   ... NOT USED
Multipole approximations                    ... NOT USED
Finite Nucleus Model                        ... NOT USED
CABS basis                                  ... NOT available
Auxiliary Coulomb fitting basis             ... AVAILABLE
   # of basis functions in Aux-J            ...    921
   # of shells in Aux-J                     ...    295
   Maximum angular momentum in Aux-J        ...      4
Auxiliary J/K fitting basis                 ... NOT available
Auxiliary Correlation fitting basis         ... NOT available
Auxiliary 'external' fitting basis          ... NOT available

Checking pre-screening integrals            ... done (  0.0 sec) Dimension = 126
   => SHARK Basis and OBASIS are compatible. Storing Pre-screening
Shell pair information
Shell pair cut-off parameter TPreSel        ...   2.5e-12
Total number of shell pairs                 ...      8001
Shell pairs after pre-screening             ...      6242
Total number of primitive shell pairs       ...     30135
Primitive shell pairs kept                  ...     15558
          la=0 lb=0:   1766 shell pairs
          la=1 lb=0:   2246 shell pairs
          la=1 lb=1:    743 shell pairs
          la=2 lb=0:    832 shell pairs
          la=2 lb=1:    551 shell pairs
          la=2 lb=2:    104 shell pairs

Checking whether 4 symmetric matrices of dimension 278 fit in memory
:Max Core in MB      =   3000.00
 MB in use           =      9.69
 MB left             =   2990.31
 MB needed           =      1.18
 Data fit in memory  = YES
Calculating RI/J V-Matrix + Cholesky decomp.... done (  0.0 sec)
Calculating Nuclear repulsion               ... done (  0.0 sec) ENN=   1109.038185016272 Eh

Diagonalization of the overlap matrix:
Smallest eigenvalue                        ... 2.413e-04
Time for diagonalization                   ...    0.004 sec
Threshold for overlap eigenvalues          ... 1.000e-07
Number of eigenvalues below threshold      ... 0
Time for construction of square roots      ...    0.003 sec
Total time needed                          ...    0.008 sec

-------------------
DFT GRID GENERATION
-------------------

General Integration Accuracy     IntAcc      ... 4.388
Radial Grid Type                 RadialGrid  ... OptM3 with GC (2021)
Angular Grid (max. ang.)         AngularGrid ... 4 (Lebedev-302)
Angular grid pruning method      GridPruning ... 4 (adaptive)
Weight generation scheme         WeightScheme... mBecke (2022)
Basis function cutoff            BFCut       ... 1.0000e-11
Integration weight cutoff        WCut        ... 1.0000e-14
Partially contracted basis set               ... off
Rotationally invariant grid construction     ... off
Angular grids for H and He will be reduced by one unit

Total number of grid points                  ...   127820
Total number of batches                      ...     2011
Average number of points per batch           ...       63
Average number of grid points per atom       ...     5113

--------------------
COSX GRID GENERATION
--------------------

GRIDX 1
-------
General Integration Accuracy     IntAcc      ... 3.816
Radial Grid Type                 RadialGrid  ... OptM3 with GC (2021)
Angular Grid (max. ang.)         AngularGrid ... 1 (Lebedev-50)
Angular grid pruning method      GridPruning ... 4 (adaptive)
Weight generation scheme         WeightScheme... mBecke (2022)
Basis function cutoff            BFCut       ... 1.0000e-11
Integration weight cutoff        WCut        ... 1.0000e-14
Partially contracted basis set               ... on
Rotationally invariant grid construction     ... off
Angular grids for H and He will be reduced by one unit

Total number of grid points                  ...    16243
Total number of batches                      ...      141
Average number of points per batch           ...      115
Average number of grid points per atom       ...      650
UseSFitting                                  ... on

GRIDX 2
-------
General Integration Accuracy     IntAcc      ... 4.020
Radial Grid Type                 RadialGrid  ... OptM3 with GC (2021)
Angular Grid (max. ang.)         AngularGrid ... 2 (Lebedev-110)
Angular grid pruning method      GridPruning ... 4 (adaptive)
Weight generation scheme         WeightScheme... mBecke (2022)
Basis function cutoff            BFCut       ... 1.0000e-11
Integration weight cutoff        WCut        ... 1.0000e-14
Partially contracted basis set               ... on
Rotationally invariant grid construction     ... off
Angular grids for H and He will be reduced by one unit

Total number of grid points                  ...    36319
Total number of batches                      ...      297
Average number of points per batch           ...      122
Average number of grid points per atom       ...     1453
UseSFitting                                  ... on

GRIDX 3
-------
General Integration Accuracy     IntAcc      ... 4.338
Radial Grid Type                 RadialGrid  ... OptM3 with GC (2021)
Angular Grid (max. ang.)         AngularGrid ... 3 (Lebedev-194)
Angular grid pruning method      GridPruning ... 4 (adaptive)
Weight generation scheme         WeightScheme... mBecke (2022)
Basis function cutoff            BFCut       ... 1.0000e-11
Integration weight cutoff        WCut        ... 1.0000e-14
Partially contracted basis set               ... on
Rotationally invariant grid construction     ... off
Angular grids for H and He will be reduced by one unit

Total number of grid points                  ...    79974
Total number of batches                      ...      637
Average number of points per batch           ...      125
Average number of grid points per atom       ...     3199
UseSFitting                                  ... on
Grids setup in   0.8 sec
Initializing property integral containers    ... done (  0.1 sec)

SHARK setup successfully completed in   1.0 seconds

Maximum memory used throughout the entire STARTUP-calculation: 32.5 MB


           ************************************************************
           *        Program running with 8 parallel MPI-processes     *
           *              working on a common directory               *
           ************************************************************
-------------------------------------------------------------------------------
                                 ORCA GUESS
                   Start orbitals & Density for SCF / CASSCF
-------------------------------------------------------------------------------

------------
SCF SETTINGS
------------
Hamiltonian:
 Density Functional     Method          .... DFT(GTOs)
 Exchange Functional    Exchange        .... B88
   X-Alpha parameter    XAlpha          ....  0.666667
   Becke's b parameter  XBeta           ....  0.004200
 Correlation Functional Correlation     .... LYP
 LDA part of GGA corr.  LDAOpt          .... VWN-5
 Gradients option       PostSCFGGA      .... off
 Hybrid DFT is turned on
   Fraction HF Exchange ScalHFX         ....  0.200000
   Scaling of DF-GGA-X  ScalDFX         ....  0.720000
   Scaling of DF-GGA-C  ScalDFC         ....  0.810000
   Scaling of DF-LDA-C  ScalLDAC        ....  1.000000
   Perturbative correction              ....  0.000000
   NL short-range parameter             ....  4.800000
 RI-approximation to the Coulomb term is turned on
   Number of AuxJ basis functions       .... 921
   RIJ-COSX (HFX calculated with COS-X)).... on


General Settings:
 Integral files         IntName         .... D:\Makaleler\coumarin-logp-working-source\dft\molecules\CMR_GOLD_044\input\CMR_GOLD_044_optfreq
 Hartree-Fock type      HFTyp           .... RHF
 Total Charge           Charge          ....    0
 Multiplicity           Mult            ....    1
 Number of Electrons    NEL             ....  118
 Basis Dimension        Dim             ....  278
 Nuclear Repulsion      ENuc            ....   1109.0381850163 Eh

Convergence Acceleration:
 AO-DIIS                CNVDIIS         .... on
   Start iteration      DIISMaxIt       ....    12
   Startup error        DIISStart       ....  0.200000
   # of expansion vecs  DIISMaxEq       ....     5
   Bias factor          DIISBfac        ....   1.050
   Max. coefficient     DIISMaxC        ....  10.000
 MO-DIIS                CNVKDIIS        .... off
 Trust-Rad. Augm. Hess. CNVTRAH         .... auto
   Auto Start mean grad. ratio tolernc. ....  1.125000
   Auto Start start iteration           ....    50
   Auto Start num. interpolation iter.  ....    10
   Max. Number of Micro iterations      ....    24
   Max. Number of Macro iterations      .... Maxiter - #DIIS iter
   Number of Davidson start vectors     ....     2
   Converg. threshold    (grad. norm)   ....   1.000e-05
   Grad. Scal. Fac. for Micro threshold ....   0.100
   Minimum threshold for Micro iter.    ....   1.000e-02
   NR start threshold (gradient norm)   ....   1.000e-04
   Initial trust radius                 ....   0.400
   Minimum AH scaling param. (alpha)    ....   1.000
   Maximum AH scaling param. (alpha)    .... 1000.000
   Quad. conv. algorithm                .... NR
   White noise on init. David. guess    .... on
   Maximum white noise                  ....   0.010
   Pseudo random numbers                .... off
   Inactive MOs                         .... canonical
   Orbital update algorithm             .... Taylor
   Preconditioner                       .... Diag
   Full preconditioner red. dimension   ....   250
 SOSCF                 CNVSOSCF           .... on
   Start iteration     SOSCFMaxIt         ....   150
   Startup grad/error  SOSCFStart         ....  0.003300
   Hessian update      SOSCFHessUp        .... L-BFGS
   Autom. constraints  SOSCFAutoConstrain .... off
 Level Shifting         CNVShift        .... on
   Level shift para.    LevelShift      ....    0.2500
   Turn off err/grad.   ShiftErr        ....    0.0010
 Zerner damping         CNVZerner       .... off
 Static damping         CNVDamp         .... on
   Fraction old density DampFac         ....    0.7000
   Max. Damping (<1)    DampMax         ....    0.9800
   Min. Damping (>=0)   DampMin         ....    0.0000
   Turn off err/grad.   DampErr         ....    0.1000

SCF Procedure:
 Maximum # iterations   MaxIter         ....   500
 SCF integral mode      SCFMode         .... Direct
   Integral package                     .... SHARK and LIBINT hybrid scheme
 Reset frequency        DirectResetFreq ....    20
 Integral Threshold     Thresh          ....  2.500e-11 Eh
 Primitive CutOff       TCut            ....  2.500e-12 Eh

Convergence Tolerance:
 Convergence Check Mode ConvCheckMode   .... Total+1el-Energy
 Convergence forced     ConvForced      .... 0
 Energy Change          TolE            ....  1.000e-08 Eh
 1-El. energy change                    ....  1.000e-05 Eh
 Orbital Gradient       TolG            ....  1.000e-05
 Orbital Rotation angle TolX            ....  1.000e-05
 DIIS Error             TolErr          ....  5.000e-07

------------------------------
INITIAL GUESS: MODEL POTENTIAL
------------------------------
Loading Hartree-Fock densities                     ... done
Calculating cut-offs                               ... done
Initializing the effective Hamiltonian             ... done
Setting up the integral package (SHARK)            ... done
Starting the Coulomb interaction                   ... done (   0.0 sec)
Making the grid                                    ... done (   0.2 sec)
Mapping shells                                     ... done
Starting the XC term evaluation                    ... done (   0.1 sec)
  promolecular density results
     # of electrons  =    117.993817694
     EX              =   -101.796538269
     EC              =     -4.096149615
     EX+EC           =   -105.892687883
Transforming the Hamiltonian                       ... done (   0.0 sec)
Diagonalizing the Hamiltonian                      ... done (   0.0 sec)
Back transforming the eigenvectors                 ... done (   0.0 sec)
Now organizing SCF variables                       ... done
                      ------------------
                      INITIAL GUESS DONE (   0.3 sec)
                      ------------------
             **** ENERGY FILE WAS UPDATED (D:\Makaleler\coumarin-logp-working-source\dft\molecules\CMR_GOLD_044\input\CMR_GOLD_044_optfreq.en.tmp) ****
Finished Guess after   0.4 sec
Maximum memory used throughout the entire GUESS-calculation: 13.3 MB


           ************************************************************
           *        Program running with 8 parallel MPI-processes     *
           *              working on a common directory               *
           ************************************************************

-------------------------------------------------------------------------------------------
                                      ORCA LEAN-SCF
                              memory conserving SCF solver
-------------------------------------------------------------------------------------------

--------------------
CPCM SOLVATION MODEL
--------------------
CPCM parameters:
  Epsilon                                         ...      80.1510
  Refrac                                          ...       1.3328
  Rsolv                                           ...       1.3000
  Surface type                                    ... GAUSSIAN VDW
  Discretization scheme                           ... Constant charge density
    Threshold for H atoms                         ...       5.0000 (charges/Ang^2)
    Threshold for non-H atoms                     ...       5.0000 (charges/Ang^2)
  Epsilon function type                           ...         CPCM
Solvent:                                          ... WATER
Radii:
  Scheme                                          ... Element-dependent radii
  Radius for O  used is    3.4469 Bohr (=   1.8240 Ang.)
  Radius for C  used is    3.8550 Bohr (=   2.0400 Ang.)
  Radius for N  used is    3.5149 Bohr (=   1.8600 Ang.)
  Radius for H  used is    2.4944 Bohr (=   1.3200 Ang.)
Calculating surface                               ...        done! (  0.0s)
Cavity surface points                             ...         2397
Cavity Volume                                     ...    1714.4500
Cavity Surface-area                               ...     898.1452
Calculating surface distance matrix               ...        done! (  0.0s)
Performing Cholesky decomposition & store         ...        done! (  0.1s)
Overall time for CPCM initialization              ...                 0.1s

----------------------------------------D-I-I-S--------------------------------------------
Iteration    Energy (Eh)           Delta-E    RMSDP     MaxDP     DIISErr   Damp  Time(sec)
-------------------------------------------------------------------------------------------
               ***  Starting incremental Fock matrix formation  ***
    1    -795.8769023194452075     0.00e+00  8.87e-03  1.34e-01  2.73e-01  0.700   1.1
    2    -796.0432246168763868    -1.66e-01  5.72e-03  8.21e-02  1.03e-01  0.700   0.8
                               ***Turning on AO-DIIS***
    3    -796.1056635755562638    -6.24e-02  2.50e-03  1.74e-02  3.56e-02  0.700   0.7
    4    -796.1446965347204241    -3.90e-02  4.69e-03  3.55e-02  1.79e-02  0.000   0.7
    5    -796.2307429141337707    -8.60e-02  6.97e-04  6.12e-03  6.07e-03  0.000   0.7
                              *** Initializing SOSCF ***
---------------------------------------S-O-S-C-F--------------------------------------
Iteration    Energy (Eh)           Delta-E    RMSDP     MaxDP     MaxGrad    Time(sec)
--------------------------------------------------------------------------------------
    6    -796.2312447904087094    -5.02e-04  2.39e-04  2.24e-03  2.27e-03     0.7
               *** Restarting incremental Fock matrix formation ***
    7    -796.2313045886614873    -5.98e-05  2.09e-04  3.15e-03  3.44e-04     1.1
    8    -796.2312903046442898     1.43e-05  1.24e-04  2.60e-03  7.86e-04     0.9
    9    -796.2313141745564735    -2.39e-05  3.91e-05  3.68e-04  7.46e-05     0.9
   10    -796.2313136874461179     4.87e-07  2.36e-05  2.11e-04  1.12e-04     0.8
   11    -796.2313145493301363    -8.62e-07  7.37e-06  9.27e-05  1.23e-05     0.7
   12    -796.2313145521409297    -2.81e-09  4.18e-06  5.75e-05  1.80e-05     0.7
                 **** Energy Check signals convergence ****

               *****************************************************
               *                     SUCCESS                       *
               *           SCF CONVERGED AFTER  12 CYCLES          *
               *****************************************************

Recomputing exchange energy using gridx3       ... done (    1.386 sec)
Old exchange energy                            :    -20.539880637 Eh
New exchange energy                            :    -20.539936781 Eh
Exchange energy change after final integration :     -0.000056144 Eh
Total energy after final integration           :   -796.231370711 Eh
             **** ENERGY FILE WAS UPDATED (D:\Makaleler\coumarin-logp-working-source\dft\molecules\CMR_GOLD_044\input\CMR_GOLD_044_optfreq.en.tmp) ****

----------------
TOTAL SCF ENERGY
----------------

Total Energy       :       -796.23137071119879 Eh          -21666.55710 eV

Components:
Nuclear Repulsion  :       1109.03818501627188 Eh           30178.46326 eV
Electronic Energy  :      -1905.25068155324789 Eh          -51844.50677 eV
One Electron Energy:      -3283.56625282157802 Eh          -89350.38022 eV
Two Electron Energy:       1378.31557126833013 Eh           37505.87346 eV
CPCM Dielectric    :         -0.01881802978786 Eh              -0.51206 eV

Virial components:
Potential Energy   :      -1585.28613627146296 Eh          -43137.82885 eV
Kinetic Energy     :        789.05476556026406 Eh           21471.27175 eV
Virial Ratio       :          2.00909519270927

DFT components:
N(Alpha)           :       59.000020540421 electrons
N(Beta)            :       59.000020540421 electrons
N(Total)           :      118.000041080843 electrons
E(X)               :      -81.740829539435 Eh       
E(C)               :       -4.814637157620 Eh       
E(XC)              :      -86.555466697055 Eh       

CPCM Solvation Model Properties:
Surface-charge          :         -0.01870248144602
Corrected charge        :         -0.00000000000000
Outlying charge corr.   :          0.00002080144736 Eh               0.00057 eV
Free-energy (cav+disp)  :  This term is not implemented in the current solvation scheme

---------------
SCF CONVERGENCE
---------------

  Last Energy change         ...    2.8108e-09  Tolerance :   1.0000e-08
  Last MAX-Density change    ...    5.7534e-05  Tolerance :   1.0000e-07
  Last RMS-Density change    ...    4.1752e-06  Tolerance :   5.0000e-09
  Last DIIS Error            ...    2.2707e-03  Tolerance :   5.0000e-07
  Last Orbital Gradient      ...    1.7981e-05  Tolerance :   1.0000e-05
  Last Orbital Rotation      ...    2.5856e-05  Tolerance :   1.0000e-05


----------------
ORBITAL ENERGIES
----------------

  NO   OCC          E(Eh)            E(eV) 
   0   2.0000     -19.245563      -523.6984 
   1   2.0000     -19.209422      -522.7149 
   2   2.0000     -19.130032      -520.5546 
   3   2.0000     -14.397099      -391.7650 
   4   2.0000     -14.347640      -390.4191 
   5   2.0000     -10.332038      -281.1490 
   6   2.0000     -10.306448      -280.4527 
   7   2.0000     -10.277271      -279.6588 
   8   2.0000     -10.273319      -279.5512 
   9   2.0000     -10.244759      -278.7741 
  10   2.0000     -10.223774      -278.2030 
  11   2.0000     -10.214570      -277.9526 
  12   2.0000     -10.204363      -277.6748 
  13   2.0000     -10.203060      -277.6394 
  14   2.0000     -10.202603      -277.6270 
  15   2.0000     -10.202155      -277.6147 
  16   2.0000     -10.196418      -277.4586 
  17   2.0000      -1.167705       -31.7749 
  18   2.0000      -1.107524       -30.1372 
  19   2.0000      -1.021422       -27.7943 
  20   2.0000      -0.948748       -25.8168 
  21   2.0000      -0.885310       -24.0905 
  22   2.0000      -0.867317       -23.6009 
  23   2.0000      -0.829759       -22.5789 
  24   2.0000      -0.759631       -20.6706 
  25   2.0000      -0.755208       -20.5503 
  26   2.0000      -0.743992       -20.2451 
  27   2.0000      -0.697155       -18.9705 
  28   2.0000      -0.657699       -17.8969 
  29   2.0000      -0.632907       -17.2223 
  30   2.0000      -0.627529       -17.0759 
  31   2.0000      -0.599889       -16.3238 
  32   2.0000      -0.559671       -15.2294 
  33   2.0000      -0.532291       -14.4844 
  34   2.0000      -0.526940       -14.3388 
  35   2.0000      -0.510560       -13.8931 
  36   2.0000      -0.495762       -13.4904 
  37   2.0000      -0.481543       -13.1034 
  38   2.0000      -0.477563       -12.9951 
  39   2.0000      -0.455209       -12.3869 
  40   2.0000      -0.447484       -12.1767 
  41   2.0000      -0.446805       -12.1582 
  42   2.0000      -0.437900       -11.9159 
  43   2.0000      -0.427973       -11.6457 
  44   2.0000      -0.421936       -11.4815 
  45   2.0000      -0.410113       -11.1597 
  46   2.0000      -0.398447       -10.8423 
  47   2.0000      -0.393492       -10.7075 
  48   2.0000      -0.379109       -10.3161 
  49   2.0000      -0.373057       -10.1514 
  50   2.0000      -0.358558        -9.7569 
  51   2.0000      -0.349358        -9.5065 
  52   2.0000      -0.347044        -9.4435 
  53   2.0000      -0.322828        -8.7846 
  54   2.0000      -0.314205        -8.5500 
  55   2.0000      -0.293530        -7.9874 
  56   2.0000      -0.289872        -7.8878 
  57   2.0000      -0.259927        -7.0730 
  58   2.0000      -0.249507        -6.7894 
  59   0.0000      -0.091980        -2.5029 
  60   0.0000      -0.038234        -1.0404 
  61   0.0000      -0.021198        -0.5768 
  62   0.0000      -0.011074        -0.3013 
  63   0.0000       0.034163         0.9296 
  64   0.0000       0.069244         1.8842 
  65   0.0000       0.073040         1.9875 
  66   0.0000       0.084606         2.3023 
  67   0.0000       0.096555         2.6274 
  68   0.0000       0.110879         3.0172 
  69   0.0000       0.116248         3.1633 
*Only the first 10 virtual orbitals were printed.

                    ********************************
                    * MULLIKEN POPULATION ANALYSIS *
                    ********************************

-----------------------
MULLIKEN ATOMIC CHARGES
-----------------------
   0 O :   -0.257882
   1 C :    0.256107
   2 O :   -0.269018
   3 C :    0.163248
   4 C :   -0.028958
   5 C :    0.026960
   6 C :    0.019131
   7 C :   -0.056985
   8 C :    0.067419
   9 C :    0.201417
  10 C :   -0.000808
  11 N :   -0.043585
  12 O :   -0.195762
  13 C :    0.076382
  14 C :    0.115368
  15 N :   -0.170896
  16 C :   -0.146054
  17 H :    0.006490
  18 H :    0.018158
  19 H :    0.010101
  20 H :   -0.000559
  21 H :    0.068428
  22 H :    0.049757
  23 H :    0.068463
  24 H :    0.023078
Sum of atomic charges:    0.0000000

--------------------------------
MULLIKEN REDUCED ORBITAL CHARGES
--------------------------------
  0 O s       :     3.721012  s :     3.721012
      pz      :     1.427136  p :     4.519725
      px      :     1.750906
      py      :     1.341682
      dz2     :     0.002049  d :     0.017145
      dxz     :     0.000227
      dyz     :     0.005238
      dx2y2   :     0.005722
      dxy     :     0.003910

  1 C s       :     3.020349  s :     3.020349
      pz      :     0.843617  p :     2.597808
      px      :     0.857445
      py      :     0.896746
      dz2     :     0.008307  d :     0.125736
      dxz     :     0.011764
      dyz     :     0.022667
      dx2y2   :     0.032316
      dxy     :     0.050682

  2 O s       :     3.732016  s :     3.732016
      pz      :     1.694709  p :     4.521388
      px      :     1.480835
      py      :     1.345843
      dz2     :     0.002185  d :     0.015614
      dxz     :     0.002200
      dyz     :     0.002404
      dx2y2   :     0.006077
      dxy     :     0.002748

  3 C s       :     3.030703  s :     3.030703
      pz      :     0.995372  p :     2.738657
      px      :     0.985915
      py      :     0.757370
      dz2     :     0.005681  d :     0.067392
      dxz     :     0.008061
      dyz     :     0.012213
      dx2y2   :     0.023320
      dxy     :     0.018117

  4 C s       :     3.279048  s :     3.279048
      pz      :     0.996972  p :     2.716910
      px      :     0.878811
      py      :     0.841127
      dz2     :     0.002812  d :     0.033000
      dxz     :     0.004453
      dyz     :     0.004713
      dx2y2   :     0.009835
      dxy     :     0.011186

  5 C s       :     3.179422  s :     3.179422
      pz      :     0.950886  p :     2.757660
      px      :     0.867136
      py      :     0.939639
      dz2     :     0.003029  d :     0.035958
      dxz     :     0.003379
      dyz     :     0.006162
      dx2y2   :     0.012077
      dxy     :     0.011311

  6 C s       :     3.172413  s :     3.172413
      pz      :     0.980154  p :     2.773774
      px      :     0.949306
      py      :     0.844315
      dz2     :     0.002594  d :     0.034682
      dxz     :     0.006004
      dyz     :     0.002928
      dx2y2   :     0.012177
      dxy     :     0.010979

  7 C s       :     3.289617  s :     3.289617
      pz      :     0.955838  p :     2.733044
      px      :     0.852186
      py      :     0.925020
      dz2     :     0.002783  d :     0.034324
      dxz     :     0.004601
      dyz     :     0.004953
      dx2y2   :     0.010484
      dxy     :     0.011503

  8 C s       :     3.081872  s :     3.081872
      pz      :     1.030726  p :     2.810282
      px      :     0.920777
      py      :     0.858779
      dz2     :     0.003783  d :     0.040427
      dxz     :     0.005763
      dyz     :     0.006513
      dx2y2   :     0.010453
      dxy     :     0.013914

  9 C s       :     3.062271  s :     3.062271
      pz      :     0.943877  p :     2.694262
      px      :     0.910353
      py      :     0.840032
      dz2     :     0.003488  d :     0.042050
      dxz     :     0.005728
      dyz     :     0.007492
      dx2y2   :     0.011754
      dxy     :     0.013589

 10 C s       :     3.092817  s :     3.092817
      pz      :     0.955325  p :     2.833017
      px      :     0.955124
      py      :     0.922569
      dz2     :     0.007827  d :     0.074974
      dxz     :     0.010051
      dyz     :     0.013035
      dx2y2   :     0.023269
      dxy     :     0.020792

 11 N s       :     3.660966  s :     3.660966
      pz      :     1.248949  p :     3.342100
      px      :     0.844372
      py      :     1.248779
      dz2     :     0.005143  d :     0.040519
      dxz     :     0.006957
      dyz     :     0.006375
      dx2y2   :     0.016494
      dxy     :     0.005549

 12 O s       :     3.784938  s :     3.784938
      pz      :     1.605319  p :     4.386906
      px      :     1.252290
      py      :     1.529297
      dz2     :     0.003239  d :     0.023918
      dxz     :     0.003497
      dyz     :     0.003667
      dx2y2   :     0.007370
      dxy     :     0.006145

 13 C s       :     3.130083  s :     3.130083
      pz      :     0.889225  p :     2.699668
      px      :     0.988347
      py      :     0.822096
      dz2     :     0.007958  d :     0.093867
      dxz     :     0.012546
      dyz     :     0.017684
      dx2y2   :     0.029515
      dxy     :     0.026163

 14 C s       :     2.874909  s :     2.874909
      pz      :     1.027282  p :     2.983506
      px      :     0.939391
      py      :     1.016834
      dz2     :     0.003908  d :     0.026217
      dxz     :     0.006248
      dyz     :     0.005532
      dx2y2   :     0.008539
      dxy     :     0.001989

 15 N s       :     3.539780  s :     3.539780
      pz      :     1.215447  p :     3.601358
      px      :     0.996252
      py      :     1.389659
      dz2     :     0.003672  d :     0.029758
      dxz     :     0.003919
      dyz     :     0.005855
      dx2y2   :     0.004863
      dxy     :     0.011449

 16 C s       :     3.351315  s :     3.351315
      pz      :     0.978015  p :     2.763583
      px      :     0.884476
      py      :     0.901092
      dz2     :     0.002820  d :     0.031156
      dxz     :     0.001993
      dyz     :     0.005431
      dx2y2   :     0.008734
      dxy     :     0.012178

 17 H s       :     0.970055  s :     0.970055
      pz      :     0.004811  p :     0.023455
      px      :     0.010378
      py      :     0.008266

 18 H s       :     0.958661  s :     0.958661
      pz      :     0.004166  p :     0.023182
      px      :     0.014274
      py      :     0.004742

 19 H s       :     0.966706  s :     0.966706
      pz      :     0.004901  p :     0.023194
      px      :     0.003614
      py      :     0.014678

 20 H s       :     0.976567  s :     0.976567
      pz      :     0.004826  p :     0.023992
      px      :     0.010386
      py      :     0.008780

 21 H s       :     0.906796  s :     0.906796
      pz      :     0.010887  p :     0.024777
      px      :     0.008048
      py      :     0.005841

 22 H s       :     0.926306  s :     0.926306
      pz      :     0.005892  p :     0.023937
      px      :     0.004565
      py      :     0.013479

 23 H s       :     0.906771  s :     0.906771
      pz      :     0.010901  p :     0.024766
      px      :     0.004491
      py      :     0.009374

 24 H s       :     0.953211  s :     0.953211
      pz      :     0.004218  p :     0.023711
      px      :     0.013378
      py      :     0.006115



                     *******************************
                     * LOEWDIN POPULATION ANALYSIS *
                     *******************************

----------------------
LOEWDIN ATOMIC CHARGES
----------------------
   0 O :   -0.219903
   1 C :    0.096203
   2 O :   -0.059785
   3 C :    0.081179
   4 C :   -0.032852
   5 C :   -0.000613
   6 C :   -0.025901
   7 C :   -0.003357
   8 C :   -0.045917
   9 C :    0.009183
  10 C :    0.003249
  11 N :   -0.068958
  12 O :   -0.001096
  13 C :    0.092324
  14 C :   -0.048090
  15 N :   -0.139067
  16 C :   -0.030685
  17 H :    0.046476
  18 H :    0.043094
  19 H :    0.039763
  20 H :    0.034538
  21 H :    0.063310
  22 H :    0.056961
  23 H :    0.063142
  24 H :    0.046802

-------------------------------
LOEWDIN REDUCED ORBITAL CHARGES
-------------------------------
  0 O s       :     3.553119  s :     3.553119
      pz      :     1.422657  p :     4.637706
      px      :     1.754581
      py      :     1.460469
      dz2     :     0.004111  d :     0.029078
      dxz     :     0.000302
      dyz     :     0.006995
      dx2y2   :     0.011793
      dxy     :     0.005877

  1 C s       :     2.850300  s :     2.850300
      pz      :     0.841159  p :     2.772721
      px      :     0.923771
      py      :     1.007791
      dz2     :     0.018280  d :     0.280776
      dxz     :     0.023192
      dyz     :     0.043303
      dx2y2   :     0.075611
      dxy     :     0.120390

  2 O s       :     3.451700  s :     3.451700
      pz      :     1.672705  p :     4.578110
      px      :     1.519673
      py      :     1.385732
      dz2     :     0.004028  d :     0.029974
      dxz     :     0.002881
      dyz     :     0.004207
      dx2y2   :     0.012220
      dxy     :     0.006637

  3 C s       :     2.844612  s :     2.844612
      pz      :     0.984725  p :     2.917063
      px      :     1.090730
      py      :     0.841608
      dz2     :     0.011996  d :     0.157146
      dxz     :     0.016616
      dyz     :     0.024666
      dx2y2   :     0.057542
      dxy     :     0.046326

  4 C s       :     2.861469  s :     2.861469
      pz      :     0.992625  p :     3.084074
      px      :     1.032425
      py      :     1.059023
      dz2     :     0.006752  d :     0.087309
      dxz     :     0.009234
      dyz     :     0.010042
      dx2y2   :     0.029105
      dxy     :     0.032175

  5 C s       :     2.860350  s :     2.860350
      pz      :     0.940350  p :     3.047830
      px      :     1.051696
      py      :     1.055785
      dz2     :     0.007110  d :     0.092433
      dxz     :     0.006571
      dyz     :     0.013864
      dx2y2   :     0.033334
      dxy     :     0.031553

  6 C s       :     2.860877  s :     2.860877
      pz      :     0.972887  p :     3.074968
      px      :     1.059937
      py      :     1.042144
      dz2     :     0.006235  d :     0.090056
      dxz     :     0.013328
      dyz     :     0.005574
      dx2y2   :     0.034000
      dxy     :     0.030918

  7 C s       :     2.862041  s :     2.862041
      pz      :     0.954568  p :     3.052492
      px      :     1.063152
      py      :     1.034773
      dz2     :     0.006431  d :     0.088823
      dxz     :     0.009511
      dyz     :     0.010811
      dx2y2   :     0.029546
      dxy     :     0.032524

  8 C s       :     2.841109  s :     2.841109
      pz      :     1.019143  p :     3.097670
      px      :     1.016866
      py      :     1.061661
      dz2     :     0.008780  d :     0.107137
      dxz     :     0.011879
      dyz     :     0.014096
      dx2y2   :     0.031957
      dxy     :     0.040426

  9 C s       :     2.850327  s :     2.850327
      pz      :     0.924739  p :     3.030273
      px      :     1.028591
      py      :     1.076944
      dz2     :     0.008391  d :     0.110217
      dxz     :     0.011715
      dyz     :     0.015684
      dx2y2   :     0.035536
      dxy     :     0.038892

 10 C s       :     2.854743  s :     2.854743
      pz      :     0.955291  p :     2.968632
      px      :     1.002276
      py      :     1.011064
      dz2     :     0.016101  d :     0.173377
      dxz     :     0.020051
      dyz     :     0.027697
      dx2y2   :     0.057076
      dxy     :     0.052452

 11 N s       :     3.369992  s :     3.369992
      pz      :     1.271550  p :     3.620262
      px      :     0.989425
      py      :     1.359287
      dz2     :     0.009328  d :     0.078704
      dxz     :     0.012415
      dyz     :     0.010154
      dx2y2   :     0.034917
      dxy     :     0.011891

 12 O s       :     3.503608  s :     3.503608
      pz      :     1.596258  p :     4.454708
      px      :     1.290172
      py      :     1.568279
      dz2     :     0.005281  d :     0.042780
      dxz     :     0.006676
      dyz     :     0.005602
      dx2y2   :     0.014533
      dxy     :     0.010688

 13 C s       :     2.867837  s :     2.867837
      pz      :     0.882145  p :     2.836156
      px      :     1.038666
      py      :     0.915345
      dz2     :     0.016486  d :     0.203683
      dxz     :     0.021957
      dyz     :     0.036933
      dx2y2   :     0.066015
      dxy     :     0.062293

 14 C s       :     2.824408  s :     2.824408
      pz      :     1.070277  p :     3.153118
      px      :     1.001418
      py      :     1.081423
      dz2     :     0.009794  d :     0.070563
      dxz     :     0.017083
      dyz     :     0.014169
      dx2y2   :     0.023574
      dxy     :     0.005943

 15 N s       :     3.257963  s :     3.257963
      pz      :     1.221335  p :     3.820027
      px      :     1.116564
      py      :     1.482129
      dz2     :     0.007255  d :     0.061077
      dxz     :     0.009089
      dyz     :     0.007384
      dx2y2   :     0.010182
      dxy     :     0.027168

 16 C s       :     2.877851  s :     2.877851
      pz      :     0.971553  p :     3.066776
      px      :     1.043918
      py      :     1.051304
      dz2     :     0.007373  d :     0.086058
      dxz     :     0.004127
      dyz     :     0.011583
      dx2y2   :     0.026740
      dxy     :     0.036235

 17 H s       :     0.883365  s :     0.883365
      pz      :     0.015452  p :     0.070159
      px      :     0.030454
      py      :     0.024253

 18 H s       :     0.888540  s :     0.888540
      pz      :     0.013161  p :     0.068366
      px      :     0.040505
      py      :     0.014701

 19 H s       :     0.891752  s :     0.891752
      pz      :     0.015330  p :     0.068484
      px      :     0.011674
      py      :     0.041480

 20 H s       :     0.893163  s :     0.893163
      pz      :     0.015099  p :     0.072299
      px      :     0.030874
      py      :     0.026326

 21 H s       :     0.869370  s :     0.869370
      pz      :     0.030292  p :     0.067320
      px      :     0.022570
      py      :     0.014459

 22 H s       :     0.876436  s :     0.876436
      pz      :     0.015644  p :     0.066603
      px      :     0.013352
      py      :     0.037607

 23 H s       :     0.869541  s :     0.869541
      pz      :     0.029303  p :     0.067317
      px      :     0.012660
      py      :     0.025354

 24 H s       :     0.880401  s :     0.880401
      pz      :     0.014286  p :     0.072797
      px      :     0.040736
      py      :     0.017776



                      *****************************
                      * MAYER POPULATION ANALYSIS *
                      *****************************

  NA   - Mulliken gross atomic population
  ZA   - Total nuclear charge
  QA   - Mulliken gross atomic charge
  VA   - Mayer's total valence
  BVA  - Mayer's bonded valence
  FA   - Mayer's free valence

  ATOM       NA         ZA         QA         VA         BVA        FA
  0 O      8.2579     8.0000    -0.2579     2.2598     2.2598     0.0000
  1 C      5.7439     6.0000     0.2561     4.2561     4.2561     0.0000
  2 O      8.2690     8.0000    -0.2690     2.2322     2.2322     0.0000
  3 C      5.8368     6.0000     0.1632     3.8456     3.8456     0.0000
  4 C      6.0290     6.0000    -0.0290     3.8289     3.8289     0.0000
  5 C      5.9730     6.0000     0.0270     3.7946     3.7946     0.0000
  6 C      5.9809     6.0000     0.0191     3.8026     3.8026     0.0000
  7 C      6.0570     6.0000    -0.0570     3.7977     3.7977     0.0000
  8 C      5.9326     6.0000     0.0674     3.8085     3.8085     0.0000
  9 C      5.7986     6.0000     0.2014     3.6442     3.6442    -0.0000
 10 C      6.0008     6.0000    -0.0008     4.0827     4.0827     0.0000
 11 N      7.0436     7.0000    -0.0436     2.8280     2.8280     0.0000
 12 O      8.1958     8.0000    -0.1958     2.2963     2.2963    -0.0000
 13 C      5.9236     6.0000     0.0764     4.2045     4.2045     0.0000
 14 C      5.8846     6.0000     0.1154     3.9345     3.9345    -0.0000
 15 N      7.1709     7.0000    -0.1709     3.0789     3.0789     0.0000
 16 C      6.1461     6.0000    -0.1461     3.7683     3.7683     0.0000
 17 H      0.9935     1.0000     0.0065     0.9946     0.9946     0.0000
 18 H      0.9818     1.0000     0.0182     0.9799     0.9799    -0.0000
 19 H      0.9899     1.0000     0.0101     0.9801     0.9801     0.0000
 20 H      1.0006     1.0000    -0.0006     1.0235     1.0235     0.0000
 21 H      0.9316     1.0000     0.0684     0.9973     0.9973     0.0000
 22 H      0.9502     1.0000     0.0498     1.0074     1.0074    -0.0000
 23 H      0.9315     1.0000     0.0685     0.9975     0.9975     0.0000
 24 H      0.9769     1.0000     0.0231     1.0266     1.0266    -0.0000

  Mayer bond orders larger than 0.100000
B(  0-O ,  1-C ) :   2.0684 B(  1-C ,  2-O ) :   1.0779 B(  1-C , 16-C ) :   1.0285 
B(  2-O ,  3-C ) :   1.0289 B(  3-C ,  4-C ) :   1.3641 B(  3-C ,  8-C ) :   1.3063 
B(  4-C ,  5-C ) :   1.3650 B(  4-C , 17-H ) :   0.9969 B(  5-C ,  6-C ) :   1.3428 
B(  5-C , 18-H ) :   0.9919 B(  6-C ,  7-C ) :   1.3955 B(  6-C , 19-H ) :   0.9898 
B(  7-C ,  8-C ) :   1.3153 B(  7-C , 20-H ) :   0.9864 B(  8-C ,  9-C ) :   1.0773 
B(  9-C , 10-C ) :   0.9904 B(  9-C , 16-C ) :   1.6055 B( 10-C , 11-N ) :   1.6358 
B( 10-C , 15-N ) :   1.3339 B( 11-N , 12-O ) :   0.9843 B( 12-O , 13-C ) :   1.1504 
B( 13-C , 14-C ) :   1.1358 B( 13-C , 15-N ) :   1.6583 B( 14-C , 21-H ) :   0.9272 
B( 14-C , 22-H ) :   0.9394 B( 14-C , 23-H ) :   0.9291 B( 16-C , 24-H ) :   0.9686 


-------
TIMINGS
-------

Total SCF time: 0 days 0 hours 0 min 12 sec 

Total time                  ....      12.304 sec
Sum of individual times     ....      11.604 sec  ( 94.3%)

SCF preparation             ....       0.319 sec  (  2.6%)
Fock matrix formation       ....      10.090 sec  ( 82.0%)
  Startup                   ....       0.026 sec  (  0.3% of F)
  Split-RI-J                ....       0.932 sec  (  9.2% of F)
  Chain of spheres X        ....       6.514 sec  ( 64.6% of F)
[...]
 30:    778.52   0.002547   12.87  0.001021  ( 0.004335  0.008004  0.030631)
 31:    782.25   0.012528   63.31  0.004998  ( 0.007616  0.011707  0.069302)
 32:    812.76   0.006000   30.32  0.002304  ( 0.002992  0.007076  0.047378)
 33:    827.94   0.011952   60.40  0.004505  (-0.065311 -0.013269  0.007961)
 34:    905.37   0.000056    0.28  0.000019  (-0.000181 -0.000944 -0.004267)
 35:    926.03   0.005726   28.94  0.001930  (-0.004680 -0.008912 -0.042758)
 36:    943.41   0.002460   12.43  0.000814  ( 0.021181  0.018021 -0.006357)
 37:    960.17   0.005081   25.68  0.001651  (-0.028881 -0.027677  0.007157)
 38:    969.65   0.019176   96.91  0.006172  (-0.039530  0.067451 -0.007705)
 39:    997.40   0.007513   37.97  0.002351  ( 0.045912  0.014156 -0.006512)
 40:   1000.47   0.000537    2.71  0.000168  (-0.001517  0.000889  0.012823)
 41:   1035.36   0.000002    0.01  0.000001  (-0.000374  0.000572  0.000320)
 42:   1049.38   0.001357    6.86  0.000404  ( 0.018887  0.005395 -0.004219)
 43:   1049.81   0.002708   13.69  0.000805  ( 0.005042  0.004429  0.027570)
 44:   1059.67   0.004436   22.42  0.001306  ( 0.022959 -0.027828  0.002221)
 45:   1095.12   0.000254    1.29  0.000072  (-0.000076 -0.008462  0.000941)
 46:   1136.41   0.005283   26.70  0.001451  ( 0.011475 -0.035992  0.004865)
 47:   1160.52   0.000671    3.39  0.000180  ( 0.008002 -0.010752  0.000908)
 48:   1200.19   0.018366   92.82  0.004775  (-0.065896  0.020595  0.002989)
 49:   1208.81   0.017927   90.59  0.004628  (-0.057500  0.036354 -0.000331)
 50:   1280.70   0.000316    1.60  0.000077  ( 0.004231 -0.007674  0.000474)
 51:   1285.15   0.019626   99.18  0.004766  (-0.029860 -0.060983  0.012449)
 52:   1297.34   0.005654   28.58  0.001360  (-0.011060 -0.034405  0.007356)
 53:   1330.70   0.069689  352.18  0.016343  ( 0.122051 -0.037368 -0.007069)
 54:   1382.34   0.002025   10.23  0.000457  ( 0.002145  0.020937 -0.003763)
 55:   1386.31   0.003775   19.08  0.000850  (-0.021137  0.020061 -0.000747)
 56:   1420.45   0.007202   36.39  0.001582  (-0.032192 -0.022900  0.004630)
 57:   1424.68   0.003129   15.82  0.000685  ( 0.000704  0.002146  0.026084)
 58:   1454.53   0.001286    6.50  0.000276  (-0.015292 -0.005442  0.003532)
 59:   1478.02   0.011036   55.77  0.002330  ( 0.014125  0.045207 -0.009318)
 60:   1523.77   0.000704    3.56  0.000144  ( 0.005994  0.010226 -0.001931)
 61:   1548.77   0.023394  118.22  0.004714  ( 0.022335 -0.064414  0.008112)
 62:   1606.95   0.013923   70.36  0.002704  (-0.036071  0.037349 -0.002804)
 63:   1647.01   0.056041  283.21  0.010618  (-0.080432 -0.061786  0.018207)
 64:   1662.20   0.029858  150.89  0.005606  ( 0.054580 -0.051155  0.003118)
 65:   1669.47   0.011564   58.44  0.002162  ( 0.017753 -0.042601  0.005621)
 66:   1800.34   0.266531  1346.94  0.046199  ( 0.011302 -0.211858  0.034465)
 67:   3050.94   0.000031    0.16  0.000003  ( 0.001716  0.000414 -0.000277)
 68:   3129.37   0.000001    0.00  0.000000  (-0.000089  0.000038  0.000254)
 69:   3178.16   0.000164    0.83  0.000016  ( 0.003985 -0.000185 -0.000448)
 70:   3190.25   0.000606    3.06  0.000059  (-0.006163 -0.004421  0.001334)
 71:   3201.94   0.001751    8.85  0.000171  ( 0.005431 -0.011796  0.001408)
 72:   3211.78   0.000400    2.02  0.000039  (-0.005710  0.002498  0.000130)
 73:   3242.72   0.002874   14.53  0.000277  (-0.015362  0.006352  0.000514)
 74:   3244.29   0.003600   18.20  0.000346  ( 0.018393  0.001889 -0.002113)

* The epsilon (eps) is given for a Dirac delta lineshape.
** The dipole moment derivative (T) already includes vibrational overlap.

The first frequency considered to be a vibration is 6
The total number of vibrations considered is 69


--------------------------
THERMOCHEMISTRY AT 298.15K
--------------------------

Temperature         ...   298.15 K
Pressure            ...     1.00 atm
Total Mass          ...   228.21 AMU
Quasi RRHO          ...     True
Cut-Off Frequency   ...     1.00 cm^-1

Throughout the following assumptions are being made:
  (1) The electronic state is orbitally nondegenerate
  (2) There are no thermally accessible electronically excited states
  (3) Hindered rotations indicated by low frequency modes are not
      treated as such but are treated as vibrations and this may
      cause some error
  (4) All equations used are the standard statistical mechanics
      equations for an ideal gas
  (5) All vibrations are strictly harmonic

freq.      22.17  E(vib)   ...       0.56 
freq.      55.09  E(vib)   ...       0.52 
freq.      66.93  E(vib)   ...       0.50 
freq.     103.78  E(vib)   ...       0.46 
freq.     119.87  E(vib)   ...       0.44 
freq.     159.47  E(vib)   ...       0.39 
freq.     202.52  E(vib)   ...       0.35 
freq.     239.35  E(vib)   ...       0.31 
freq.     274.27  E(vib)   ...       0.28 
freq.     306.44  E(vib)   ...       0.26 
freq.     328.75  E(vib)   ...       0.24 
freq.     340.38  E(vib)   ...       0.23 
freq.     426.67  E(vib)   ...       0.18 
freq.     449.24  E(vib)   ...       0.17 
freq.     478.83  E(vib)   ...       0.15 
freq.     512.57  E(vib)   ...       0.13 
freq.     536.01  E(vib)   ...       0.12 
freq.     611.79  E(vib)   ...       0.10 
freq.     626.55  E(vib)   ...       0.09 
freq.     663.11  E(vib)   ...       0.08 
freq.     676.96  E(vib)   ...       0.08 
freq.     710.55  E(vib)   ...       0.07 
freq.     715.67  E(vib)   ...       0.07 
freq.     774.09  E(vib)   ...       0.05 
freq.     778.52  E(vib)   ...       0.05 
freq.     782.25  E(vib)   ...       0.05 
freq.     812.76  E(vib)   ...       0.05 
freq.     827.94  E(vib)   ...       0.04 
freq.     905.37  E(vib)   ...       0.03 
freq.     926.03  E(vib)   ...       0.03 
freq.     943.41  E(vib)   ...       0.03 
freq.     960.17  E(vib)   ...       0.03 
freq.     969.65  E(vib)   ...       0.03 
freq.     997.40  E(vib)   ...       0.02 
freq.    1000.47  E(vib)   ...       0.02 
freq.    1035.36  E(vib)   ...       0.02 
freq.    1049.38  E(vib)   ...       0.02 
freq.    1049.81  E(vib)   ...       0.02 
freq.    1059.67  E(vib)   ...       0.02 
freq.    1095.12  E(vib)   ...       0.02 
freq.    1136.41  E(vib)   ...       0.01 
freq.    1160.52  E(vib)   ...       0.01 
freq.    1200.19  E(vib)   ...       0.01 
freq.    1208.81  E(vib)   ...       0.01 
freq.    1280.70  E(vib)   ...       0.01 
freq.    1285.15  E(vib)   ...       0.01 
freq.    1297.34  E(vib)   ...       0.01 
freq.    1330.70  E(vib)   ...       0.01 
freq.    1382.34  E(vib)   ...       0.01 
freq.    1386.31  E(vib)   ...       0.00 
freq.    1420.45  E(vib)   ...       0.00 
freq.    1424.68  E(vib)   ...       0.00 
freq.    1454.53  E(vib)   ...       0.00 
freq.    1478.02  E(vib)   ...       0.00 
freq.    1523.77  E(vib)   ...       0.00 
freq.    1548.77  E(vib)   ...       0.00 
freq.    1606.95  E(vib)   ...       0.00 
freq.    1647.01  E(vib)   ...       0.00 
freq.    1662.20  E(vib)   ...       0.00 
freq.    1669.47  E(vib)   ...       0.00 
freq.    1800.34  E(vib)   ...       0.00 
freq.    3050.94  E(vib)   ...       0.00 
freq.    3129.37  E(vib)   ...       0.00 
freq.    3178.16  E(vib)   ...       0.00 
freq.    3190.25  E(vib)   ...       0.00 
freq.    3201.94  E(vib)   ...       0.00 
freq.    3211.78  E(vib)   ...       0.00 
freq.    3242.72  E(vib)   ...       0.00 
freq.    3244.29  E(vib)   ...       0.00 

------------
INNER ENERGY
------------

The inner energy is: U= E(el) + E(ZPE) + E(vib) + E(rot) + E(trans)
    E(el)   - is the total energy from the electronic structure calculation
              = E(kin-el) + E(nuc-el) + E(el-el) + E(nuc-nuc)
    E(ZPE)  - the the zero temperature vibrational energy from the frequency calculation
    E(vib)  - the the finite temperature correction to E(ZPE) due to population
              of excited vibrational states
    E(rot)  - is the rotational thermal energy
    E(trans)- is the translational thermal energy

Summary of contributions to the inner energy U:
Electronic energy                ...   -796.29338558 Eh
Zero point energy                ...      0.18213603 Eh     114.29 kcal/mol
Thermal vibrational correction   ...      0.01025463 Eh       6.43 kcal/mol
Thermal rotational correction    ...      0.00141627 Eh       0.89 kcal/mol
Thermal translational correction ...      0.00141627 Eh       0.89 kcal/mol
-----------------------------------------------------------------------
Total thermal energy                   -796.09816237 Eh


Summary of corrections to the electronic energy:
(perhaps to be used in another calculation)
Total thermal correction                  0.01308718 Eh       8.21 kcal/mol
Non-thermal (ZPE) correction              0.18213603 Eh     114.29 kcal/mol
-----------------------------------------------------------------------
Total correction                          0.19522321 Eh     122.50 kcal/mol


--------
ENTHALPY
--------

The enthalpy is H = U + kB*T
                kB is Boltzmann's constant
Total thermal energy              ...   -796.09816237 Eh 
Thermal Enthalpy correction       ...      0.00094421 Eh       0.59 kcal/mol
-----------------------------------------------------------------------
Total Enthalpy                    ...   -796.09721816 Eh


Note: Only C1 symmetry has been detected, increase convergence thresholds 
      if your molecule has a higher symmetry. Symmetry factor of 1.0 is   
      used for the rotational entropy correction. 
 

Note: Rotational entropy computed according to Herzberg 
Infrared and Raman Spectra, Chapter V,1, Van Nostrand Reinhold, 1945 
Point Group:  C1, Symmetry Number:   1  
Rotational constants in cm-1:     0.027102     0.010954     0.007813 

Vibrational entropy computed according to the QRRHO of S. Grimme
Chem.Eur.J. 2012 18 9955 using a reference frequency of 100.0 cm-1


-------
ENTROPY
-------

The entropy contributions are T*S = T*(S(el)+S(vib)+S(rot)+S(trans))
     S(el)   - electronic entropy
     S(vib)  - vibrational entropy
     S(rot)  - rotational entropy
     S(trans)- translational entropy
The entropies will be listed as multiplied by the temperature to get
units of energy

Electronic entropy                ...      0.00000000 Eh      0.00 kcal/mol
Vibrational entropy               ...      0.01789444 Eh     11.23 kcal/mol
Rotational entropy                ...      0.01563579 Eh      9.81 kcal/mol
Translational entropy             ...      0.02003978 Eh     12.58 kcal/mol
-----------------------------------------------------------------------
Final entropy term                ...      0.05357002 Eh     33.62 kcal/mol

In case the symmetry of your molecule has not been determined correctly
or in case you have a reason to use a different symmetry number we print 
out the resulting rotational entropy values for sn=1,12:

 non-linear molecules -----------------------------------
|  sn= 1 | S(rot)=       0.01563579 Eh      9.81 kcal/mol|
|  sn= 2 | S(rot)=       0.01498133 Eh      9.40 kcal/mol|
|  sn= 3 | S(rot)=       0.01459850 Eh      9.16 kcal/mol|
|  sn= 4 | S(rot)=       0.01432688 Eh      8.99 kcal/mol|
|  sn= 5 | S(rot)=       0.01411619 Eh      8.86 kcal/mol|
|  sn= 6 | S(rot)=       0.01394404 Eh      8.75 kcal/mol|
|  sn= 7 | S(rot)=       0.01379850 Eh      8.66 kcal/mol|
|  sn= 8 | S(rot)=       0.01367242 Eh      8.58 kcal/mol|
|  sn= 9 | S(rot)=       0.01356121 Eh      8.51 kcal/mol|
|  sn=10 | S(rot)=       0.01346173 Eh      8.45 kcal/mol|
|  sn=11 | S(rot)=       0.01337174 Eh      8.39 kcal/mol|
|  sn=12 | S(rot)=       0.01328959 Eh      8.34 kcal/mol|
 linear molecules ---------------------------------------
|  Dinfh | S(rot)=       0.00990695 Eh      6.22 kcal/mol|
|  Cinfv | S(rot)=       0.01056141 Eh      6.63 kcal/mol|
 --------------------------------------------------------


-------------------
GIBBS FREE ENERGY
-------------------

The Gibbs free energy is G = H - T*S

Total enthalpy                    ...   -796.09721816 Eh 
Total entropy correction          ...     -0.05357002 Eh    -33.62 kcal/mol
-----------------------------------------------------------------------
Final Gibbs free energy         ...   -796.15078818 Eh

For completeness - the Gibbs free energy minus the electronic energy
G-E(el)                           ...      0.14259740 Eh     89.48 kcal/mol


Maximum memory used throughout the entire PROP-calculation: 109.1 MB

--------------------------------
SUGGESTED CITATIONS FOR THIS RUN
--------------------------------

Below you find a list of papers that are relevant to this ORCA run
We neither can nor want to force you to cite these papers, but we appreciate if you do
You receive ORCA, which is the product of decades of hard work by many enthusiastic individuals, for free
The only thing we kindly ask in return is that you cite our papers,
We deeply appreciate it, if you show your appreciation for ORCA by not just citing the generic ORCA reference.

Please note that relegating all ORCA citations to the supporting information does *not* help us.
SI sections are not indexed - citations you put there will not count into any citation statistics
But we need these citations in order to attract the funding resources that allow us to do what we are doing

Therefore, if you are a happy ORCA user, please consider citing a few of the papers listed below in the main body of your paper

In addition to the list printed below, the program has created the file D:\Makaleler\coumarin-logp-working-source\dft\molecules\CMR_GOLD_044\input\CMR_GOLD_044_optfreq.bibtex that contains the list in bibtex format
You can import this file easily into all common literature databanks and citation aid programs

It goes without saying that in many instances, there are alternative algorithms to achieve similar
results as the ones you have gotten from ORCA. It is, of course, also the case that in some instances
ORCA just re-implements algorithms worked out by others. We are fully aware of that and we are also
fully appreciative of our colleagues work. Hence this citation list should not be read as indicating
that the listed papers, which are focused on our own work, are the only ones worth citing. It simply
meant to make it easier for users to cite ORCA specific papers. It is not a substitute for doing your
own literature research and citing the relevant literature in a scientifically appropriate manner.

List of essential papers. We consider these as the minimum necessary citations

  1. Neese, F.
     Software update: the ORCA program system, version 6.0
     WIRES Comput. Molec. Sci. 2025 15(1), e70019
     doi.org/10.1002/wcms.70019

List of papers to cite with high priority. The work reported in these papers was absolutely
necessary for this run to complete.
Our perspective: the developers of density functionals and basis sets usually get cited in chemistry papers
Good! But without the algorithms to do something with them, the functionals or basis sets would not do anything.
Hence, in our opinion, the algorithm design and method developments papers are equally worthy of getting cited

  1. Neese, F.
     An improvement of the resolution of the identity approximation for the formation of the Coulomb matrix
     J. Comp. Chem. 2003 24(14), 1740-1747
     doi.org/10.1002/jcc.10318
  2. Neese, F.; Wennmohs, F.; Hansen, A.; Becker, U.
     Efficient, approximate and parallel Hartree-Fock and hybrid DFT calculations. A 'chain-of-spheres' algorithm for the Hartree-Fock exchange
     Chem. Phys. 2009 356(1-3), 98-109
     doi.org/10.1016/j.chemphys.2008.10.036
  3. Grimme, S.; Antony, J.; Ehrlich, S.; Krieg, H.
     A consistent and accurate ab initio parametrization of density functional dispersion correction (DFT-D) for the 94 elements H-Pu
     J. Chem. Phys. 2010 132 , 154104
     doi.org/10.1063/1.3382344
  4. Grimme, S.; Ehrlich, S.; Goerigk, L.
     Effect of the damping function in dispersion corrected density functional theory
     J. Comput. Chem. 2011 32(7), 1456-1465
     doi.org/10.1002/jcc.21759
  5. Bykov, D.; Petrenko, T.; Izsak, R.; Kossmann, S.; Becker, U.; Valeev, E.; Neese, F.
     Efficient implementation of the analytic second derivatives of Hartree-Fock and hybrid DFT energies: a detailed analysis of different approximations
     Molec. Phys. 2015 113 , 1961-1977
     doi.org/10.1080/00268976.2015.1025114
  6. Garcia-Rates, M.; Neese, F.
     Efficient implementation of the analytical second derivatives of hartree-fock and hybrid DFT energies within the framework of the conductor-like polarizable continuum model
     J. Comput. Chem. 2019 40 , 1816-1828
     doi.org/10.1002/jcc.25833
  7. Garcia-Rates, M.; Neese, F.
     Effect of the Solute Cavity on the Solvation Energy and its Derivatives within the Framework of the Gaussian Charge Scheme
     J. Comput. Chem. 2020 41 , 922-939
     doi.org/10.1002/jcc.26139
  8. Helmich-Paris, B.; de Souza, B.; Neese, F.; Izsák, R.
     An improved chain of spheres for exchange algorithm
     J. Chem. Phys. 2021 155(10), 104109
     doi.org/10.1063/5.0058766
  9. Neese, F.
     The SHARK Integral Generation and Digestion System
     J. Comp. Chem. 2022 44(3), 381
     doi.org/10.1002/jcc.26942

List of suggested additional citations. These are papers that are important in the 'surrounding' of 
of this run, or papers that preceded the highly important papers. If you like your results we are grateful for a citation.

  1. Izsak, R.; Neese, F.
     An overlap fitted chain of spheres exchange method
     J. Chem. Phys. 2011 135 , 144105
     doi.org/10.1063/1.3646921
  2. Izsak, R.; Hansen, A.; Neese, F.
     The resolution of identity and chain of spheres approximations for the LPNO-CCSD singles Fock term
     Molec. Phys. 2012 110 , 2413-2417
     doi.org/10.1080/00268976.2012.687466
  3. Neese, F.
     The ORCA program system
     WIRES Comput. Molec. Sci. 2012 2(1), 73-78
     doi.org/10.1002/wcms.81
  4. Izsak, R.; Neese, F.; Klopper, W.
     Robust fitting techniques in the chain of spheres approximation to the Fock exchange: The role of the complementary space
     J. Chem. Phys. 2013 139 , 
     doi.org/10.1063/1.4819264
  5. Neese, F.
     Software update: the ORCA program system, version 4.0
     WIRES Comput. Molec. Sci. 2018 8(1), 1-6
     doi.org/10.1002/wcms.1327
  6. Neese, F.; Wennmohs, F.; Becker, U.; Riplinger, C.
     The ORCA quantum chemistry program package
     J. Chem. Phys. 2020 152(22), 224108
     doi.org/10.1063/5.0004608
  7. Neese, F.
     Software update: The ORCA program system—Version 5.0
     WIRES Comput. Molec. Sci. 2022 12(1), e1606
     doi.org/10.1002/wcms.1606

List of optional additional citations

  1. Neese, F.
     Approximate second-order SCF convergence for spin unrestricted wavefunctions
     Chem. Phys. Lett. 2000 325(1-3), 93-98
     doi.org/10.1016/s0009-2614(00)00662-x

Timings for individual modules:

Sum of individual times          ...      417.255 sec (=   6.954 min)
Startup calculation              ...       15.156 sec (=   0.253 min)   3.6 %
SCF iterations                   ...      139.627 sec (=   2.327 min)  33.5 %
Property integrals               ...       36.461 sec (=   0.608 min)   8.7 %
SCF Response                     ...       76.832 sec (=   1.281 min)  18.4 %
Property calculations            ...       76.794 sec (=   1.280 min)  18.4 %
SCF Gradient evaluation          ...       72.122 sec (=   1.202 min)  17.3 %
Geometry relaxation              ...        0.263 sec (=   0.004 min)   0.1 %
                             ****ORCA TERMINATED NORMALLY****
TOTAL RUN TIME: 0 days 0 hours 7 minutes 0 seconds 266 msec
