
                                 *****************
                                 * O   R   C   A *
                                 *****************

                                            #,                                       
                                            ###                                      
                                            ####                                     
                                            #####                                    
                                            ######                                   
                                           ########,                                 
                                     ,,################,,,,,                         
                               ,,#################################,,                 
                          ,,##########################################,,             
                       ,#########################################, ''#####,          
                    ,#############################################,,   '####,        
                  ,##################################################,,,,####,       
                ,###########''''           ''''###############################       
              ,#####''   ,,,,##########,,,,          '''####'''          '####       
            ,##' ,,,,###########################,,,                        '##       
           ' ,,###''''                  '''############,,,                           
         ,,##''                                '''############,,,,        ,,,,,,###''
      ,#''                                            '''#######################'''  
     '                                                          ''''####''''         
             ,#######,   #######,   ,#######,      ##                                
            ,#'     '#,  ##    ##  ,#'     '#,    #''#        ,####,    ,#,          
            ##       ##  ##   ,#'  ##            #'  '#       #'       ,# #          
            ##       ##  #######   ##           ,######,      #####,      #          
            '#,     ,#'  ##    ##  '#,     ,#' ,#      #,     #,   #      #          
             '#######'   ##     ##  '#######'  #'      '#     '####' #    #          



                #########################################################
                #                        -***-                          #
                #          Department of theory and spectroscopy        #
                #                                                       #
                #                      Frank Neese                      #
                #                                                       #
                #     Directorship, Architecture, Infrastructure        #
                #                    SHARK, DRIVERS                     #
                #        Core code/Algorithms in most modules           #
                #                                                       #
                #        Max Planck Institute fuer Kohlenforschung      #
                #                Kaiser Wilhelm Platz 1                 #
                #                 D-45470 Muelheim/Ruhr                 #
                #                      Germany                          #
                #                                                       #
                #                  All rights reserved                  #
                #                        -***-                          #
                #########################################################


                         Program Version 6.1.1  -  RELEASE   -


 With contributions from (in alphabetic order):
[Max-Planck-Institut fuer Kohlenforschung]                               
  Daniel Aravena         : Magnetic Suceptibility                        
  Michael Atanasov       : Ab Initio Ligand Field Theory (pilot matlab implementation)
  Alexander A. Auer      : GIAO ZORA, VPT2 properties, NMR spectrum      
  Ute Becker             : All parallelization in ORCA, NUMFREQ, NUMCALC 
  Giovanni Bistoni       : ED, misc. LED, open-shell LED, HFLD           
  Dmytro Bykov           : pre 5.0 version of the SCF Hessian            
  Marcos Casanova-Páez   : Triplet and SCS-CIS(D). UHF-(DLPNO)-IP/EA/STEOM-CCSD. UHF-CVS-IP/STEOM-CCSD   
  Vijay G. Chilkuri      : MRCI spin determinant printing, contributions to CSF-ICE 
  Pauline Colinet        : FMM embedding                                 
  Dipayan Datta          : RHF DLPNO-CCSD density                        
  Achintya Kumar Dutta   : EOM-CC, STEOM-CC                              
  Nicolas Foglia         : Exact transition moments, OPA infrastructure, MCD improvements    
  Dmitry Ganyushin       : Spin-Orbit,Spin-Spin,Magnetic field MRCI      
  Miquel Garcia-Rates    : C-PCM and meta-GGA Hessian, CCSD/C-PCM, Gaussian charge scheme 
  Tiago L. C. Gouveia    : GS-ROHF, GS-ROCIS                             
  Yang Guo               : DLPNO-NEVPT2, F12-NEVPT2, CIM, IAO-localization        
  Andreas Hansen         : Spin unrestricted coupled pair/coupled cluster methods 
  Ingolf Harden          : AUTO-CI MPn and infrastructure                
  Benjamin Helmich-Paris : MC-RPA, TRAH-(SCF,CASSCF), AVAS, COSX integrals, SCF dyn. polar., MC-PDFT, srDFT 
  Lee Huntington         : MR-EOM, pCC                                   
  Robert Izsak           : Overlap fitted RIJCOSX, COSX-SCS-MP3, EOM     
  Riya Kayal             : Wick's Theorem for AUTO-CI, AUTO-CI UHF-CCSDT 
  Emily Kempfer          : AUTO-CI RHF CISDT and CCSDT, approximate NEVPT4
  Christian Kollmar      : KDIIS, OOCD, Brueckner-CCSD(T), CCSD density, CASPT2, CASPT2-K, improved NEVPT2 
  Axel Koslowski         : Symmetry handling                             
  Simone Kossmann        : meta-GGA functionals, TD-DFT gradient, OOMP2, (MP2 Hessian; deprecated post 5.0) 
  Lucas Lang             : DCDCAS, Hyperfine gauge corrections, ICE-SOC+SSC
  Marvin Lechner         : AUTO-CI (C++ implementation), FIC-MRCC        
  Spencer Leger          : CASSCF response                               
  Dagmar Lenk            : GEPOL surface, SMD, ORCA-2-JSON               
  Dimitrios Liakos       : Extrapolation schemes; Compound Job, Property file
  Dimitrios Manganas     : Further ROCIS development; embedding schemes. LFT, Crystal Embedding 
  Dimitrios Pantazis     : SARC Basis sets                               
  Anastasios Papadopoulos: AUTO-CI, single reference methods and gradients 
  Taras Petrenko         : pre 6.0 DFT Hessian and TD-DFT gradient,  ECA, NRVS 
  Petra Pikulova         : Analytic Raman intensities                    
  Peter Pinski           : DLPNO-MP2, DLPNO-MP2 Gradient                 
  Shashank Vittal Rao    : ES-AILFT, MagRelax                            
  Christoph Reimann      : Effective Core Potentials                     
  Marius Retegan         : Local ZFS, SOC                                
  Christoph Riplinger    : Optimizer, TS searches, QM/MM, DLPNO-CCSD(T), (RO)-DLPNO pert. Triples 
  Michael Roemelt        : Original ROCIS implementation, recursive CI coupling coefficients
  Masaaki Saitow         : Open-shell DLPNO-CCSD energy and density      
  Barbara Sandhoefer     : DKH picture change effects                    
  Yorick L. A. Schmerwitz: GMF and freeze-and-release deltaSCF, NEB S-IDPP initial path                    
  Kantharuban Sivalingam : CASSCF convergence/infrastructure, NEVPT2, NEVPT3, NEVPT4(SD), FIC-MRCI and CEPA variants
  Bernardo de Souza      : ESD, SOC TD-DFT                               
  Georgi L. Stoychev     : AutoAux, RI-MP2 NMR, DLPNO-MP2 response, X2C  
  Van Anh Tran           : RI-MP2 g-tensors                              
  Willem Van den Heuvel  : Paramagnetic NMR                              
  Zikuan Wang            : NOTCH, Electric field optimization            
  Frank Wennmohs         : Technical directorship and infrastructure     
  Hang Xu                : AUTO-CI-Response properties                   
                                                                         
[FACCTs GmbH]                                                            
  Markus Bursch, Nicolas Foglia, Miquel Garcia-Rates, Ingolf Harden, Hagen Neugebauer, Anastasios Papadopoulos, 
  Christoph Riplinger, Bernardo de Souza, Georgi L. Stoychev                                                    
                                                                 
  APM, various basis sets, CI-OPT, improved COSX, DLPNO-Multilevel,           
  DOCKER, DRACO, updates on ESD, Fragmentator, GOAT, IRC, LR-CPCM, L-BFGS, MBIS, meta-GGA TD-DFT gradient, ML-optimized integration grids, 
  MM, NACMEs, nearIR, NEB, NEB-TS, NL-DFT gradient (VV10), 2- and 3-layer-ONIOM, interface openCOSMO-RS, QMMM,   
  Crystal-QMMM, RESP, rigid body optimization, SF, symmetry and pop. for TD-DFT, various functionals, SOLVATOR                                   
                                                                         
[Other institutions]                                                     
  V. Asgeirsson          : NEB                                           
  Christoph Bannwarth    : sTDA-DFT, sTD-DFT, PBEh-3c, B97-3c, D3        
  Giovanni Bistoni       : ETS/NOCV, ADLD/ADEX, COVALED                  
  Martin Brehm           : Molecular dynamics                            
  Ronald Cardenas        : ETS/NOCV                                      
  Martina Colucci        : COVALED                                       
  Sebastian Ehlert       : rSCAN, r2SCAN, r2SCAN-3c, D4, dhf basis sets  
  Marvin Friede          : D4 for Fr, Ra, Ac-Lr                          
  Lars Goerigk           : TD-DFT with DH, B97 family of functionals     
  Stefan Grimme          : VdW corrections, initial TS optimization, DFT functionals, gCP, sTDA/sTD-DF 
  Waldemar Hujo          : DFT-NL                                        
  H. Jonsson             : NEB                                           
  Holger Kruse           : gCP                                           
  Marcel Mueller         : wB97X-3c, vDZP basis set                      
  Hagen Neugebauer       : wr2SCAN, Native XTB                           
  Gianluca Regni         : ADLD/ADEX                                     
  Tobias Risthaus        : pre 6.0 range-separated hybrid DFT and stability analysis
  Lukas Wittmann         : regularized MP2, r2SCAN double-hybrids, wr2SCAN        
                                                                         
We gratefully acknowledge several colleagues who have allowed us to      
interface, adapt or use parts of their codes:                            
  Ed Valeev, F. Pavosevic, A. Kumar             : LibInt (2-el integral package), F12 methods 
  Garnet Chan, S. Sharma, J. Yang, R. Olivares  : DMRG                   
  Ulf Ekstrom                                   : XCFun DFT Library      
  Mihaly Kallay                                 : mrcc  (arbitrary order and MRCC methods)
  Frank Weinhold                                : gennbo (NPA and NBO analysis)           
  Simon Mueller                                 : openCOSMO-RS                            
  Christopher J. Cramer and Donald G. Truhlar   : smd solvation model                     
  S Lehtola, MJT Oliveira, MAL Marques          : LibXC Library                           
  Liviu Ungur et al                             : ANISO software                          


 Your calculation uses the libint2 library for the computation of 2-el integrals
 For citations please refer to: http://libint.valeyev.net

 Your ORCA version has been built with support for libXC version: 7.0.0
 For citations please refer to: https://libxc.gitlab.io

 This ORCA versions uses:
   CBLAS   interface :  Fast vector & matrix operations
   LAPACKE interface :  Fast linear algebra routines
   Shared memory     :  Shared parallel matrices


  ***********************************
  * Starting time: Thu Jun  4 20:53:39 2026
  * Host name:     AHMET
  * Process ID:    11828
  * Working dir.:  D:\Makaleler\coumarin-logp-working-source\dft\molecules\CMR_GOLD_090
  ***********************************

NOTE: MaxCore=3000 MB was set to SCF,MP2,MDCI,CIPSI,MRCI,RASCI and CIS
      => If you want to overwrite this, your respective input block should be placed after the MaxCore statement


***************************************
The coordinates will be read from file: input/CMR_GOLD_090_start.xyz
***************************************


Your calculation utilizes the atom-pairwise dispersion correction
with the Becke-Johnson damping scheme (D3BJ)


================================================================================

----- Orbital basis set information -----
Your calculation utilizes the basis: def2-SVP
   F. Weigend and R. Ahlrichs, Phys. Chem. Chem. Phys. 7, 3297 (2005).

----- AuxJ basis set information -----
Your calculation utilizes the auxiliary basis: def2/J
   H-Rn: F. Weigend, Phys. Chem. Chem. Phys. 8, 1057 (2006).
   Fr-Lr: K. Eichkorn, F. Weigend, O. Treutler, R. Ahlrichs; Theor. Chem. Acc. 97, 119 (1997).

================================================================================
                                        WARNINGS
                       Please study these warnings very carefully!
================================================================================


WARNING: Geometry Optimization
  ===> : Switching off AutoStart
         For restart on a previous wavefunction, please use MOREAD

================================================================================
                                       INPUT FILE
================================================================================
NAME = input\CMR_GOLD_090_optfreq.inp
|  1> ! B3LYP D3BJ def2-SVP TightSCF RIJCOSX def2/J CPCM(Water) Opt Freq
|  2> 
|  3> %pal
|  4>   nprocs 8
|  5> end
|  6> 
|  7> %maxcore 3000
|  8> 
|  9> %scf
| 10>   MaxIter 500
| 11> end
| 12> 
| 13> %output
| 14>   Print[P_Mulliken] 1
| 15>   Print[P_Loewdin] 1
| 16> end
| 17> 
| 18> * xyzfile 0 1 input/CMR_GOLD_090_start.xyz
| 19> 
| 20>                          ****END OF INPUT****
================================================================================

                       *****************************
                       * Geometry Optimization Run *
                       *****************************

Geometry optimization settings:
Update method            Update   .... BFGS
Choice of coordinates    CoordSys .... (2022) Redundant Internals
Initial Hessian          InHess   .... Almloef's Model
Max. no of cycles        MaxIter  .... 135

Convergence Tolerances:
Energy Change            TolE     ....  5.0000e-06 Eh
Max. Gradient            TolMAXG  ....  3.0000e-04 Eh/bohr
RMS Gradient             TolRMSG  ....  1.0000e-04 Eh/bohr
Max. Displacement        TolMAXD  ....  4.0000e-03 bohr
RMS Displacement         TolRMSD  ....  2.0000e-03 bohr
Strict Convergence                .... False

------------------------------------------------------------------------------
                        ORCA OPTIMIZATION COORDINATE SETUP
------------------------------------------------------------------------------

The optimization will be done in redundant internal coordinates (2022)
Making redundant internal coordinates   ...  (2022 redundants) done
Evaluating the initial hessian          ...  (Almloef) done
Evaluating the coordinates              ...  done
Calculating the B-matrix                .... done
Calculating the G-matrix                .... done
The number of degrees of freedom        ....  223

    -----------------------------------------------------------------
                    Redundant Internal Coordinates


    -----------------------------------------------------------------
         Definition                    Initial Value    Approx d2E/dq
    -----------------------------------------------------------------
      1. B(C   1,O   0)                  1.2251         1.025470   
      2. B(C   2,C   1)                  1.4871         0.437381   
      3. B(C   3,C   2)                  1.4938         0.426695   
      4. B(C   4,C   3)                  1.4653         0.473729   
      5. B(C   5,C   4)                  1.3828         0.641443   
      6. B(C   6,C   5)                  1.3947         0.614148   
      7. B(C   7,C   6)                  1.3948         0.613985   
      8. B(C   8,C   7)                  1.3958         0.611526   
      9. B(C   9,C   4)                  1.3995         0.603273   
     10. B(C   9,C   8)                  1.3969         0.609200   
     11. B(O  10,C   5)                  1.3999         0.539517   
     12. B(O  10,C   1)                  1.3903         0.559042   
     13. B(O  11,C   3)                  1.2292         1.010337   
     14. B(C  12,C   2)                  1.3639         0.687724   
     15. B(C  13,C  12)                  1.5202         0.387300   
     16. B(N  14,C  12)                  1.4070         0.525724   
     17. B(C  15,N  14)                  1.4654         0.424167   
     18. B(C  16,C  15)                  1.5141         0.396008   
     19. B(C  17,C  16)                  1.4072         0.586498   
     20. B(C  18,C  17)                  1.3966         0.609878   
     21. B(C  19,C  18)                  1.3912         0.622060   
     22. B(O  20,C  19)                  1.3688         0.604854   
     23. B(C  21,O  20)                  1.4221         0.497312   
     24. B(C  22,C  19)                  1.3993         0.603748   
     25. B(C  23,C  22)                  1.4006         0.600967   
     26. B(C  23,C  16)                  1.4057         0.589797   
     27. B(O  24,C  23)                  1.3708         0.600447   
     28. B(C  25,O  24)                  1.4223         0.496964   
     29. B(H  26,C   6)                  1.0870         0.364044   
     30. B(H  27,C   7)                  1.0877         0.363106   
     31. B(H  28,C   8)                  1.0878         0.362982   
     32. B(H  29,C   9)                  1.0884         0.362250   
     33. B(H  30,C  13)                  1.0941         0.354733   
     34. B(H  31,C  13)                  1.0942         0.354614   
     35. B(H  32,C  13)                  1.0951         0.353460   
     36. B(H  33,O  11)                  1.7884         0.024795   
     37. B(H  33,N  14)                  1.0284         0.404446   
     38. B(H  34,C  15)                  1.0973         0.350629   
     39. B(H  35,C  15)                  1.0936         0.355369   
     40. B(H  36,C  17)                  1.0888         0.361655   
     41. B(H  37,C  18)                  1.0845         0.367429   
     42. B(H  38,C  21)                  1.0943         0.354483   
     43. B(H  39,C  21)                  1.0950         0.353535   
     44. B(H  40,C  21)                  1.0950         0.353490   
     45. B(H  41,C  22)                  1.0852         0.366552   
     46. B(H  42,C  25)                  1.0952         0.353333   
     47. B(H  43,C  25)                  1.0947         0.353930   
     48. B(H  44,C  25)                  1.0943         0.354476   
     49. A(O   0,C   1,O  10)          119.5357         0.460547   
     50. A(C   2,C   1,O  10)          115.7695         0.397918   
     51. A(O   0,C   1,C   2)          124.6924         0.443387   
     52. A(C   3,C   2,C  12)          118.9192         0.413611   
     53. A(C   1,C   2,C  12)          121.7750         0.415434   
     54. A(C   1,C   2,C   3)          119.3000         0.382006   
     55. A(C   2,C   3,O  11)          124.0207         0.440225   
     56. A(C   2,C   3,C   4)          116.7079         0.387348   
     57. A(C   4,C   3,O  11)          119.2615         0.448637   
     58. A(C   5,C   4,C   9)          119.5846         0.434586   
     59. A(C   3,C   4,C   5)          119.5727         0.416186   
     60. A(C   3,C   4,C   9)          120.8370         0.411674   
     61. A(C   4,C   5,C   6)          121.0062         0.435986   
     62. A(C   6,C   5,O  10)          116.7703         0.419913   
     63. A(C   4,C   5,O  10)          122.1994         0.423186   
     64. A(C   5,C   6,C   7)          119.4691         0.432567   
     65. A(C   7,C   6,H  26)          120.1567         0.352977   
     66. A(C   5,C   6,H  26)          120.3732         0.352993   
     67. A(C   8,C   7,H  27)          119.9935         0.352584   
     68. A(C   6,C   7,H  27)          120.0075         0.352823   
     69. A(C   6,C   7,C   8)          119.9986         0.432235   
     70. A(C   7,C   8,H  28)          120.0276         0.352563   
     71. A(C   9,C   8,H  28)          119.9390         0.352336   
     72. A(C   7,C   8,C   9)          120.0333         0.431627   
     73. A(C   4,C   9,H  29)          120.4377         0.351634   
     74. A(C   4,C   9,C   8)          119.9077         0.430575   
     75. A(C   8,C   9,H  29)          119.6538         0.352216   
     76. A(C   1,O  10,C   5)          123.7178         0.410281   
     77. A(C  13,C  12,N  14)          114.6219         0.385381   
     78. A(C   2,C  12,N  14)          123.3391         0.426513   
     79. A(C   2,C  12,C  13)          121.9682         0.406572   
     80. A(H  30,C  13,H  32)          108.2392         0.289309   
     81. A(H  30,C  13,H  31)          109.7501         0.289457   
     82. A(C  12,C  13,H  32)          111.4792         0.325251   
     83. A(C  12,C  13,H  30)          110.6307         0.325443   
     84. A(H  31,C  13,H  32)          104.3753         0.289294   
     85. A(C  12,C  13,H  31)          112.1310         0.325425   
     86. A(C  15,N  14,H  33)          110.3852         0.332713   
     87. A(C  12,N  14,H  33)          111.2539         0.344845   
     88. A(C  12,N  14,C  15)          124.9522         0.389054   
     89. A(H  34,C  15,H  35)          105.2170         0.289026   
     90. A(N  14,C  15,H  35)          110.6056         0.328471   
     91. A(C  16,C  15,H  34)          108.0575         0.326011   
     92. A(N  14,C  15,H  34)          108.2858         0.327744   
     93. A(N  14,C  15,C  16)          111.5380         0.372750   
     94. A(C  16,C  15,H  35)          112.8100         0.326733   
     95. A(C  15,C  16,C  17)          119.2896         0.396877   
     96. A(C  15,C  16,C  23)          121.8402         0.397268   
     97. A(C  17,C  16,C  23)          118.8699         0.425925   
     98. A(C  16,C  17,H  36)          119.9736         0.349866   
     99. A(C  16,C  17,C  18)          121.1497         0.428487   
    100. A(C  18,C  17,H  36)          118.8740         0.352184   
    101. A(C  17,C  18,H  37)          118.0039         0.353129   
    102. A(C  17,C  18,C  19)          119.8668         0.433041   
    103. A(C  19,C  18,H  37)          122.1293         0.354314   
    104. A(C  18,C  19,C  22)          119.4359         0.432255   
    105. A(C  18,C  19,O  20)          125.9499         0.429572   
    106. A(O  20,C  19,C  22)          114.6140         0.427276   
    107. A(C  19,O  20,C  21)          116.8495         0.410085   
    108. A(H  39,C  21,H  40)          111.2235         0.289159   
    109. A(H  38,C  21,H  40)          107.6908         0.289281   
    110. A(O  20,C  21,H  40)          111.1525         0.336953   
    111. A(H  38,C  21,H  39)          107.6883         0.289287   
    112. A(O  20,C  21,H  39)          111.1231         0.336960   
    113. A(O  20,C  21,H  38)          107.7741         0.337111   
    114. A(C  23,C  22,H  41)          121.4441         0.352109   
    115. A(C  19,C  22,H  41)          117.3569         0.352384   
    116. A(C  19,C  22,C  23)          121.1981         0.429586   
    117. A(C  22,C  23,O  24)          124.2230         0.426364   
    118. A(C  16,C  23,O  24)          116.2928         0.424935   
    119. A(C  16,C  23,C  22)          119.4783         0.427788   
    120. A(C  23,O  24,C  25)          117.2903         0.409503   
    121. A(H  43,C  25,H  44)          107.6425         0.289336   
    122. A(H  42,C  25,H  44)          107.6528         0.289260   
    123. A(O  24,C  25,H  44)          107.7109         0.337070   
    124. A(H  42,C  25,H  43)          111.3219         0.289190   
    125. A(O  24,C  25,H  43)          110.9469         0.336984   
    126. A(O  24,C  25,H  42)          111.3670         0.336889   
    127. D(C   3,C   2,C   1,O  10)    -18.9412         0.013057   
    128. D(C  12,C   2,C   1,O   0)    -18.6193         0.013057   
    129. D(C   3,C   2,C   1,O   0)    160.4905         0.013057   
    130. D(C  12,C   2,C   1,O  10)    161.9490         0.013057   
    131. D(O  11,C   3,C   2,C   1)   -163.1746         0.012446   
    132. D(C   4,C   3,C   2,C   1)     17.9796         0.012446   
    133. D(C   4,C   3,C   2,C  12)   -162.8851         0.012446   
    134. D(O  11,C   3,C   2,C  12)     15.9607         0.012446   
    135. D(C   9,C   4,C   3,O  11)     -6.7528         0.015280   
    136. D(C   9,C   4,C   3,C   2)    172.1507         0.015280   
    137. D(C   5,C   4,C   3,O  11)    174.1222         0.015280   
    138. D(C   5,C   4,C   3,C   2)     -6.9744         0.015280   
    139. D(O  10,C   5,C   4,C   3)     -2.9064         0.028596   
    140. D(C   6,C   5,C   4,C   9)     -0.1989         0.028596   
    141. D(C   6,C   5,C   4,C   3)    178.9373         0.028596   
    142. D(O  10,C   5,C   4,C   9)    177.9574         0.028596   
    143. D(H  26,C   6,C   5,O  10)      1.3532         0.026070   
    144. D(H  26,C   6,C   5,C   4)    179.6057         0.026070   
    145. D(C   7,C   6,C   5,C   4)     -0.0157         0.026070   
    146. D(C   7,C   6,C   5,O  10)   -178.2683         0.026070   
    147. D(H  27,C   7,C   6,H  26)      0.3379         0.026055   
    148. D(C   8,C   7,C   6,H  26)   -179.4225         0.026055   
    149. D(H  27,C   7,C   6,C   5)    179.9602         0.026055   
    150. D(C   8,C   7,C   6,C   5)      0.1998         0.026055   
    151. D(H  28,C   8,C   7,H  27)      0.1457         0.025835   
    152. D(H  28,C   8,C   7,C   6)    179.9062         0.025835   
    153. D(C   9,C   8,C   7,H  27)   -179.9287         0.025835   
    154. D(C   9,C   8,C   7,C   6)     -0.1682         0.025835   
    155. D(H  29,C   9,C   4,C   3)      0.7815         0.025104   
    156. D(C   8,C   9,C   4,C   5)      0.2295         0.025104   
    157. D(C   8,C   9,C   4,C   3)   -178.8955         0.025104   
    158. D(H  29,C   9,C   8,H  28)      0.1990         0.025628   
    159. D(H  29,C   9,C   8,C   7)   -179.7266         0.025628   
    160. D(C   4,C   9,C   8,H  28)    179.8785         0.025628   
    161. D(C   4,C   9,C   8,C   7)     -0.0471         0.025628   
    162. D(H  29,C   9,C   4,C   5)    179.9064         0.025104   
    163. D(C   1,O  10,C   5,C   6)    179.9845         0.021017   
    164. D(C   1,O  10,C   5,C   4)      1.7545         0.021017   
    165. D(C   5,O  10,C   1,C   2)      9.2372         0.022639   
    166. D(C   5,O  10,C   1,O   0)   -170.2258         0.022639   
    167. D(N  14,C  12,C   2,C   3)     -1.2101         0.033214   
    168. D(N  14,C  12,C   2,C   1)    177.9029         0.033214   
    169. D(C  13,C  12,C   2,C   3)    175.5653         0.033214   
    170. D(C  13,C  12,C   2,C   1)     -5.3217         0.033214   
    171. D(H  32,C  13,C  12,C   2)   -154.3051         0.011168   
    172. D(H  31,C  13,C  12,N  14)    139.3505         0.011168   
    173. D(H  31,C  13,C  12,C   2)    -37.6864         0.011168   
    174. D(H  30,C  13,C  12,N  14)    -97.7679         0.011168   
    175. D(H  30,C  13,C  12,C   2)     85.1952         0.011168   
    176. D(H  33,N  14,C  12,C  13)    177.2221         0.021933   
    177. D(H  33,N  14,C  12,C   2)     -5.7868         0.021933   
    178. D(C  15,N  14,C  12,C  13)     40.5142         0.021933   
    179. D(C  15,N  14,C  12,C   2)   -142.4948         0.021933   
    180. D(H  35,C  15,N  14,C  12)    -60.2152         0.015340   
    181. D(H  34,C  15,N  14,H  33)     47.9599         0.015340   
    182. D(H  34,C  15,N  14,C  12)   -175.0226         0.015340   
    183. D(C  16,C  15,N  14,H  33)    -70.8157         0.015340   
    184. D(C  16,C  15,N  14,C  12)     66.2018         0.015340   
    185. D(C  23,C  16,C  15,H  34)    121.9814         0.011649   
    186. D(C  23,C  16,C  15,N  14)   -119.1069         0.011649   
    187. D(C  17,C  16,C  15,H  35)   -173.6949         0.011649   
    188. D(C  17,C  16,C  15,H  34)    -57.8070         0.011649   
    189. D(C  17,C  16,C  15,N  14)     61.1046         0.011649   
    190. D(H  36,C  17,C  16,C  23)    179.6983         0.023658   
    191. D(H  36,C  17,C  16,C  15)     -0.5070         0.023658   
    192. D(C  18,C  17,C  16,C  23)      0.3115         0.023658   
    193. D(C  18,C  17,C  16,C  15)   -179.8937         0.023658   
    194. D(H  37,C  18,C  17,H  36)      0.2463         0.025688   
    195. D(H  37,C  18,C  17,C  16)    179.6396         0.025688   
    196. D(C  19,C  18,C  17,H  36)   -179.7299         0.025688   
    197. D(C  19,C  18,C  17,C  16)     -0.3365         0.025688   
    198. D(C  22,C  19,C  18,H  37)   -179.9382         0.026787   
    199. D(C  22,C  19,C  18,C  17)      0.0370         0.026787   
    200. D(O  20,C  19,C  18,H  37)      0.2425         0.026787   
    201. D(O  20,C  19,C  18,C  17)   -179.7823         0.026787   
    202. D(C  21,O  20,C  19,C  22)    179.3028         0.026749   
    203. D(C  21,O  20,C  19,C  18)     -0.8703         0.026749   
    204. D(H  40,C  21,O  20,C  19)    -61.7809         0.019546   
    205. D(H  39,C  21,O  20,C  19)     62.6630         0.019546   
    206. D(H  38,C  21,O  20,C  19)   -179.5688         0.019546   
    207. D(H  41,C  22,C  19,O  20)      0.4800         0.025146   
    208. D(H  41,C  22,C  19,C  18)   -179.3592         0.025146   
    209. D(C  23,C  22,C  19,O  20)   -179.8759         0.025146   
    210. D(C  23,C  22,C  19,C  18)      0.2850         0.025146   
    211. D(O  24,C  23,C  22,H  41)      0.2350         0.024902   
    212. D(O  24,C  23,C  22,C  19)   -179.3945         0.024902   
    213. D(C  16,C  23,C  22,H  41)    179.3225         0.024902   
    214. D(C  16,C  23,C  22,C  19)     -0.3070         0.024902   
    215. D(O  24,C  23,C  16,C  17)    179.1675         0.023938   
    216. D(O  24,C  23,C  16,C  15)     -0.6218         0.023938   
    217. D(C  22,C  23,C  16,C  17)      0.0091         0.023938   
    218. D(C  22,C  23,C  16,C  15)   -179.7802         0.023938   
    219. D(C  25,O  24,C  23,C  22)    -11.1968         0.026335   
    220. D(C  25,O  24,C  23,C  16)    169.6893         0.026335   
    221. D(H  44,C  25,O  24,C  23)   -173.7014         0.019518   
    222. D(H  43,C  25,O  24,C  23)     68.7231         0.019518   
    223. D(H  42,C  25,O  24,C  23)    -55.8764         0.019518   
    -----------------------------------------------------------------

Number of atoms                         .... 45
Number of degrees of freedom            .... 223


         *************************************************************
         *                GEOMETRY OPTIMIZATION CYCLE   1            *
         *************************************************************
---------------------------------
CARTESIAN COORDINATES (ANGSTROEM)
---------------------------------
  O      1.567447   -1.162992    2.923531
  C      2.219576   -0.679277    2.006100
  C      1.833491   -0.736610    0.571162
  C      2.442447    0.232266   -0.389003
  C      3.667895    0.908069    0.045514
  C      4.116247    0.740690    1.342903
  C      5.290468    1.352041    1.781750
  C      6.023435    2.143934    0.898010
  C      5.577940    2.322745   -0.412693
  C      4.400005    1.706069   -0.841013
  O      3.405809   -0.010682    2.286603
  O      1.989377    0.469709   -1.506684
  C      0.922747   -1.640049    0.108012
  C      0.334413   -2.720071    1.001521
  N      0.501835   -1.695430   -1.233407
  C     -0.864494   -1.990952   -1.673053
  C     -1.829424   -0.899385   -1.260782
  C     -1.636450    0.408377   -1.743258
  C     -2.501396    1.445102   -1.386182
  C     -3.579448    1.189187   -0.544913
  O     -4.502871    2.106122   -0.120393
  C     -4.331427    3.444958   -0.568223
  C     -3.783847   -0.109116   -0.064549
  C     -2.919192   -1.155208   -0.410529
  O     -3.067304   -2.450232    0.013881
  C     -4.016751   -2.694212    1.044412
  H      5.630054    1.218647    2.805728
  H      6.940156    2.625377    1.231189
  H      6.148438    2.941516   -1.101915
  H      4.060703    1.846078   -1.865631
  H     -0.526425   -2.334885    1.556154
  H      1.073102   -3.124942    1.699838
  H      0.006654   -3.587644    0.419231
  H      0.893322   -0.916843   -1.779409
  H     -0.868002   -2.052060   -2.768599
  H     -1.173530   -2.982056   -1.329291
  H     -0.795346    0.627690   -2.398994
  H     -2.301444    2.434493   -1.782791
  H     -5.138219    4.046734   -0.138802
  H     -4.412020    3.509804   -1.658335
  H     -3.381945    3.861094   -0.215471
  H     -4.640926   -0.272970    0.580549
  H     -3.810759   -2.083122    1.929578
  H     -5.037490   -2.537435    0.681246
  H     -3.926851   -3.744529    1.338029

----------------------------
CARTESIAN COORDINATES (A.U.)
----------------------------
  NO LB      ZA    FRAG     MASS         X           Y           Z
   0 O     8.0000    0    15.999    2.962045   -2.197736    5.524673
   1 C     6.0000    0    12.011    4.194390   -1.283647    3.790980
   2 C     6.0000    0    12.011    3.464796   -1.391992    1.079341
   3 C     6.0000    0    12.011    4.615556    0.438920   -0.735109
   4 C     6.0000    0    12.011    6.931317    1.716002    0.086010
   5 C     6.0000    0    12.011    7.778580    1.399701    2.537718
   6 C     6.0000    0    12.011    9.997535    2.554988    3.367019
   7 C     6.0000    0    12.011   11.382643    4.051449    1.696993
   8 C     6.0000    0    12.011   10.540779    4.389351   -0.779876
   9 C     6.0000    0    12.011    8.314804    3.224004   -1.589284
  10 O     8.0000    0    15.999    6.436047   -0.020187    4.321053
  11 O     8.0000    0    15.999    3.759377    0.887622   -2.847221
  12 C     6.0000    0    12.011    1.743739   -3.099243    0.204114
  13 C     6.0000    0    12.011    0.631949   -5.140189    1.892600
  14 N     7.0000    0    14.007    0.948331   -3.203899   -2.330802
  15 C     6.0000    0    12.011   -1.633656   -3.762355   -3.161612
  16 C     6.0000    0    12.011   -3.457110   -1.699592   -2.382533
  17 C     6.0000    0    12.011   -3.092443    0.771721   -3.294280
  18 C     6.0000    0    12.011   -4.726953    2.730847   -2.619504
  19 C     6.0000    0    12.011   -6.764177    2.247238   -1.029736
  20 O     8.0000    0    15.999   -8.509193    3.979994   -0.227510
  21 C     6.0000    0    12.011   -8.185212    6.510028   -1.073786
  22 C     6.0000    0    12.011   -7.150434   -0.206199   -0.121979
  23 C     6.0000    0    12.011   -5.516473   -2.183027   -0.775787
  24 O     8.0000    0    15.999   -5.796364   -4.630268    0.026231
  25 C     6.0000    0    12.011   -7.590559   -5.091323    1.973652
  26 H     1.0000    0     1.008   10.639259    2.302909    5.302058
  27 H     1.0000    0     1.008   13.114993    4.961244    2.326609
  28 H     1.0000    0     1.008   11.618864    5.558660   -2.082318
  29 H     1.0000    0     1.008    7.673617    3.488581   -3.525531
  30 H     1.0000    0     1.008   -0.994798   -4.412293    2.940704
  31 H     1.0000    0     1.008    2.027868   -5.905284    3.212228
  32 H     1.0000    0     1.008    0.012574   -6.779665    0.792233
  33 H     1.0000    0     1.008    1.688134   -1.732582   -3.362595
  34 H     1.0000    0     1.008   -1.640285   -3.877832   -5.231895
  35 H     1.0000    0     1.008   -2.217650   -5.635269   -2.511995
  36 H     1.0000    0     1.008   -1.502986    1.186162   -4.533441
  37 H     1.0000    0     1.008   -4.349099    4.600524   -3.368988
  38 H     1.0000    0     1.008   -9.709826    7.647219   -0.262299
  39 H     1.0000    0     1.008   -8.337510    6.632568   -3.133799
  40 H     1.0000    0     1.008   -6.390950    7.296410   -0.407181
  41 H     1.0000    0     1.008   -8.770080   -0.515839    1.097079
  42 H     1.0000    0     1.008   -7.201290   -3.936529    3.646374
  43 H     1.0000    0     1.008   -9.519477   -4.795058    1.287368
  44 H     1.0000    0     1.008   -7.420674   -7.076135    2.528509

--------------------------------
INTERNAL COORDINATES (ANGSTROEM)
--------------------------------
 O      0   0   0     0.000000000000     0.00000000     0.00000000
 C      1   0   0     1.225125054937     0.00000000     0.00000000
 C      2   1   0     1.487075959106   124.69241026     0.00000000
 C      3   2   1     1.493809535392   119.30003152   160.49046946
 C      4   3   2     1.465345073238   116.70791950    17.97956253
 C      5   4   3     1.382842316197   119.57268175   353.02560980
 C      6   5   4     1.394679436354   121.00618763   178.93728294
 C      7   6   5     1.394751401129   119.46907099     0.00000000
 C      8   7   6     1.395843976980   119.99856600     0.19976490
 C      9   8   7     1.396881493037   120.03332658   359.83178692
 O      2   1   3     1.390269947012   119.53565746   179.41176550
 O      4   3   2     1.229172111221   124.02071706   196.82536664
 C      3   2   1     1.363878163395   121.77495572   341.38072062
 C     13   3   2     1.520178143063   121.96824011   354.67833490
 N     13   3   2     1.406996936667   123.33914741   177.90292017
 C     15  13   3     1.465426744069   124.95221353   217.50524217
 C     16  15  13     1.514125424045   111.53799641    66.20180318
 C     17  16  15     1.407218912226   119.28963406    61.10462377
 C     18  17  16     1.396578675037   121.14967290   180.10626877
 C     19  18  17     1.391194696756   119.86675147   359.66345930
 O     20  19  18     1.368830392108   125.94985563   180.21765049
 C     21  20  19     1.422120912172   116.84950582   359.12967594
 C     20  19  18     1.399328215299   119.43588373     0.03696396
 C     23  20  19     1.400585221634   121.19806504     0.28500408
 O     24  23  20     1.370820690622   124.22304400   180.60548222
 C     25  24  23     1.422310991955   117.29032079   348.80323239
 H      7   6   5     1.087034856174   120.37315466   179.60574916
 H      8   7   6     1.087737007442   120.00751680   179.96022754
 H      9   8   7     1.087829982244   120.02763201   179.90622410
 H     10   9   8     1.088379461670   119.65383306   180.27339311
 H     14  13   3     1.094087582869   110.63067448    85.19517658
 H     14  13   3     1.094179088344   112.13103325   322.31357511
 H     14  13   3     1.095066013384   111.47916234   205.69494587
 H     15  13   3     1.028386249943   111.25389301   354.21319799
 H     16  15  13     1.097254907247   108.28578134   184.97739195
 H     16  15  13     1.093600380497   110.60557535   299.78481336
 H     18  17  16     1.088826780590   119.97356235   359.49300855
 H     19  18  17     1.084515646305   118.00391039   179.63959842
 H     22  21  20     1.094279808684   107.77408318   180.43116196
 H     22  21  20     1.095008846273   111.12307160    62.66299100
 H     22  21  20     1.095043050098   111.15245186   298.21907029
 H     23  20  19     1.085165771948   117.35688210   180.64084794
 H     26  25  24     1.095163799385   111.36696345   304.12357567
 H     26  25  24     1.094704589581   110.94685430    68.72309128
 H     26  25  24     1.094285030751   107.71091615   186.29860924

---------------------------
INTERNAL COORDINATES (A.U.)
---------------------------
 O      0   0   0     0.000000000000     0.00000000     0.00000000
 C      1   0   0     2.315150833637     0.00000000     0.00000000
 C      2   1   0     2.810166303048   124.69241026     0.00000000
 C      3   2   1     2.822890918130   119.30003152   160.49046946
 C      4   3   2     2.769100880111   116.70791950    17.97956253
 C      5   4   3     2.613193264010   119.57268175   353.02560980
 C      6   5   4     2.635562179320   121.00618763   178.93728294
 C      7   6   5     2.635698173037   119.46907099     0.00000000
 C      8   7   6     2.637762842176   119.99856600     0.19976490
 C      9   8   7     2.639723463383   120.03332658   359.83178692
 O      2   1   3     2.627229452073   119.53565746   179.41176550
 O      4   3   2     2.322798661662   124.02071706   196.82536664
 C      3   2   1     2.577356208852   121.77495572   341.38072062
 C     13   3   2     2.872720365162   121.96824011   354.67833490
 N     13   3   2     2.658838881567   123.33914741   177.90292017
 C     15  13   3     2.769255215615   124.95221353   217.50524217
 C     16  15  13     2.861282383852   111.53799641    66.20180318
 C     17  16  15     2.659258354581   119.28963406    61.10462377
 C     18  17  16     2.639151220295   121.14967290   180.10626877
 C     19  18  17     2.628976975833   119.86675147   359.66345930
 O     20  19  18     2.586714564873   125.94985563   180.21765049
 C     21  20  19     2.687419053328   116.84950582   359.12967594
 C     20  19  18     2.644347098385   119.43588373     0.03696396
 C     23  20  19     2.646722496106   121.19806504     0.28500408
 O     24  23  20     2.590475683989   124.22304400   180.60548222
 C     25  24  23     2.687778252061   117.29032079   348.80323239
 H      7   6   5     2.054198176196   120.37315466   179.60574916
 H      8   7   6     2.055525049796   120.00751680   179.96022754
 H      9   8   7     2.055700746711   120.02763201   179.90622410
 H     10   9   8     2.056739112341   119.65383306   180.27339311
 H     14  13   3     2.067525898147   110.63067448    85.19517658
 H     14  13   3     2.067698818434   112.13103325   322.31357511
 H     14  13   3     2.069374863862   111.47916234   205.69494587
 H     15  13   3     1.943368372282   111.25389301   354.21319799
 H     16  15  13     2.073511273799   108.28578134   184.97739195
 H     16  15  13     2.066605219092   110.60557535   299.78481336
 H     18  17  16     2.057584422595   119.97356235   359.49300855
 H     19  18  17     2.049437559469   118.00391039   179.63959842
 H     22  21  20     2.067889152293   107.77408318   180.43116196
 H     22  21  20     2.069266833677   111.12307160    62.66299100
 H     22  21  20     2.069331469539   111.15245186   298.21907029
 H     23  20  19     2.050666118887   117.35688210   180.64084794
 H     26  25  24     2.069559652621   111.36696345   304.12357567
 H     26  25  24     2.068691871855   110.94685430    68.72309128
 H     26  25  24     2.067899020568   107.71091615   186.29860924

---------------------
BASIS SET INFORMATION
---------------------
There are 4 groups of distinct atoms

 Group   1 Type O   : 7s4p1d contracted to 3s2p1d pattern {511/31/1}
 Group   2 Type C   : 7s4p1d contracted to 3s2p1d pattern {511/31/1}
 Group   3 Type N   : 7s4p1d contracted to 3s2p1d pattern {511/31/1}
 Group   4 Type H   : 4s1p contracted to 2s1p pattern {31/1}

Atom   0O    basis set group =>   1
Atom   1C    basis set group =>   2
Atom   2C    basis set group =>   2
Atom   3C    basis set group =>   2
Atom   4C    basis set group =>   2
Atom   5C    basis set group =>   2
Atom   6C    basis set group =>   2
Atom   7C    basis set group =>   2
Atom   8C    basis set group =>   2
Atom   9C    basis set group =>   2
Atom  10O    basis set group =>   1
Atom  11O    basis set group =>   1
Atom  12C    basis set group =>   2
Atom  13C    basis set group =>   2
Atom  14N    basis set group =>   3
Atom  15C    basis set group =>   2
Atom  16C    basis set group =>   2
Atom  17C    basis set group =>   2
Atom  18C    basis set group =>   2
Atom  19C    basis set group =>   2
Atom  20O    basis set group =>   1
Atom  21C    basis set group =>   2
Atom  22C    basis set group =>   2
Atom  23C    basis set group =>   2
Atom  24O    basis set group =>   1
Atom  25C    basis set group =>   2
Atom  26H    basis set group =>   4
Atom  27H    basis set group =>   4
Atom  28H    basis set group =>   4
Atom  29H    basis set group =>   4
Atom  30H    basis set group =>   4
Atom  31H    basis set group =>   4
Atom  32H    basis set group =>   4
Atom  33H    basis set group =>   4
Atom  34H    basis set group =>   4
Atom  35H    basis set group =>   4
Atom  36H    basis set group =>   4
Atom  37H    basis set group =>   4
Atom  38H    basis set group =>   4
Atom  39H    basis set group =>   4
Atom  40H    basis set group =>   4
Atom  41H    basis set group =>   4
Atom  42H    basis set group =>   4
Atom  43H    basis set group =>   4
Atom  44H    basis set group =>   4
---------------------------------
AUXILIARY/J BASIS SET INFORMATION
---------------------------------
There are 4 groups of distinct atoms

 Group   1 Type O   : 12s5p4d2f1g contracted to 6s4p3d1f1g pattern {711111/2111/211/2/1}
 Group   2 Type C   : 12s5p4d2f1g contracted to 6s4p3d1f1g pattern {711111/2111/211/2/1}
 Group   3 Type N   : 12s5p4d2f1g contracted to 6s4p3d1f1g pattern {711111/2111/211/2/1}
 Group   4 Type H   : 5s2p1d contracted to 3s1p1d pattern {311/2/1}

Atom   0O    basis set group =>   1
Atom   1C    basis set group =>   2
Atom   2C    basis set group =>   2
Atom   3C    basis set group =>   2
Atom   4C    basis set group =>   2
Atom   5C    basis set group =>   2
Atom   6C    basis set group =>   2
Atom   7C    basis set group =>   2
Atom   8C    basis set group =>   2
Atom   9C    basis set group =>   2
Atom  10O    basis set group =>   1
Atom  11O    basis set group =>   1
Atom  12C    basis set group =>   2
Atom  13C    basis set group =>   2
Atom  14N    basis set group =>   3
Atom  15C    basis set group =>   2
Atom  16C    basis set group =>   2
Atom  17C    basis set group =>   2
Atom  18C    basis set group =>   2
Atom  19C    basis set group =>   2
Atom  20O    basis set group =>   1
Atom  21C    basis set group =>   2
Atom  22C    basis set group =>   2
Atom  23C    basis set group =>   2
Atom  24O    basis set group =>   1
Atom  25C    basis set group =>   2
Atom  26H    basis set group =>   4
Atom  27H    basis set group =>   4
Atom  28H    basis set group =>   4
Atom  29H    basis set group =>   4
Atom  30H    basis set group =>   4
Atom  31H    basis set group =>   4
Atom  32H    basis set group =>   4
Atom  33H    basis set group =>   4
Atom  34H    basis set group =>   4
Atom  35H    basis set group =>   4
Atom  36H    basis set group =>   4
Atom  37H    basis set group =>   4
Atom  38H    basis set group =>   4
Atom  39H    basis set group =>   4
Atom  40H    basis set group =>   4
Atom  41H    basis set group =>   4
Atom  42H    basis set group =>   4
Atom  43H    basis set group =>   4
Atom  44H    basis set group =>   4


           ************************************************************
           *        Program running with 8 parallel MPI-processes     *
           *              working on a common directory               *
           ************************************************************
------------------------------------------------------------------------------
                             ORCA STARTUP CALCULATIONS
                           -- RI-GTO INTEGRALS CHOSEN --
------------------------------------------------------------------------------
------------------------------------------------------------------------------
                   ___                                                        
                  /   \      - P O W E R E D   B Y -                         
                 /     \                                                     
                 |  |  |   _    _      __       _____    __    __             
                 |  |  |  | |  | |    /  \     |  _  \  |  |  /  |          
                  \  \/   | |  | |   /    \    | | | |  |  | /  /          
                 / \  \   | |__| |  /  /\  \   | |_| |  |  |/  /          
                |  |  |   |  __  | /  /__\  \  |    /   |      \           
                |  |  |   | |  | | |   __   |  |    \   |  |\   \          
                \     /   | |  | | |  |  |  |  | |\  \  |  | \   \       
                 \___/    |_|  |_| |__|  |__|  |_| \__\ |__|  \__/        
                                                                              
                      - O R C A' S   B I G   F R I E N D -                    
                                      &                                       
                       - I N T E G R A L  F E E D E R -                       
                                                                              
 v1 FN, 2020, v2 2021, v3 2022-2024                                           
------------------------------------------------------------------------------


----------------------
SHARK INTEGRAL PACKAGE
----------------------

Number of atoms                             ...     45
Number of basis functions                   ...    459
Number of shells                            ...    213
Maximum angular momentum                    ...      2
Integral batch strategy                     ... SHARK/LIBINT Hybrid
RI-J (if used) integral strategy            ... SPLIT-RIJ (Revised 2003 algorithm where possible)
Printlevel                                  ...      1
Contraction scheme used                     ... SEGMENTED contraction
Prescreening option                         ... SCHWARTZ
   Thresh                                   ... 2.500e-11
   Tcut                                     ... 2.500e-12
   Tpresel                                  ... 2.500e-12 
Coulomb Range Separation                    ... NOT USED
Exchange Range Separation                   ... NOT USED
Multipole approximations                    ... NOT USED
Finite Nucleus Model                        ... NOT USED
CABS basis                                  ... NOT available
Auxiliary Coulomb fitting basis             ... AVAILABLE
   # of basis functions in Aux-J            ...   1483
   # of shells in Aux-J                     ...    485
   Maximum angular momentum in Aux-J        ...      4
Auxiliary J/K fitting basis                 ... NOT available
Auxiliary Correlation fitting basis         ... NOT available
Auxiliary 'external' fitting basis          ... NOT available

Checking pre-screening integrals            ... done (  0.0 sec) Dimension = 213
   => SHARK Basis and OBASIS are compatible. Storing Pre-screening
Shell pair information
Shell pair cut-off parameter TPreSel        ...   2.5e-12
Total number of shell pairs                 ...     22791
Shell pairs after pre-screening             ...     15012
Total number of primitive shell pairs       ...     83423
Primitive shell pairs kept                  ...     34259
          la=0 lb=0:   4594 shell pairs
          la=1 lb=0:   5594 shell pairs
          la=1 lb=1:   1743 shell pairs
          la=2 lb=0:   1801 shell pairs
          la=2 lb=1:   1105 shell pairs
          la=2 lb=2:    175 shell pairs

Checking whether 4 symmetric matrices of dimension 459 fit in memory
:Max Core in MB      =   3000.00
 MB in use           =     17.93
 MB left             =   2982.07
 MB needed           =      3.22
 Data fit in memory  = YES
Calculating RI/J V-Matrix + Cholesky decomp.... done (  0.1 sec)
Calculating Nuclear repulsion               ... done (  0.0 sec) ENN=   2265.209436568375 Eh

Diagonalization of the overlap matrix:
Smallest eigenvalue                        ... 2.088e-04
Time for diagonalization                   ...    0.018 sec
Threshold for overlap eigenvalues          ... 1.000e-07
Number of eigenvalues below threshold      ... 0
Time for construction of square roots      ...    0.009 sec
Total time needed                          ...    0.030 sec

-------------------
DFT GRID GENERATION
-------------------

General Integration Accuracy     IntAcc      ... 4.388
Radial Grid Type                 RadialGrid  ... OptM3 with GC (2021)
Angular Grid (max. ang.)         AngularGrid ... 4 (Lebedev-302)
Angular grid pruning method      GridPruning ... 4 (adaptive)
Weight generation scheme         WeightScheme... mBecke (2022)
Basis function cutoff            BFCut       ... 1.0000e-11
Integration weight cutoff        WCut        ... 1.0000e-14
Partially contracted basis set               ... off
Rotationally invariant grid construction     ... off
Angular grids for H and He will be reduced by one unit

Total number of grid points                  ...   216090
Total number of batches                      ...     3398
Average number of points per batch           ...       63
Average number of grid points per atom       ...     4802

--------------------
COSX GRID GENERATION
--------------------

GRIDX 1
-------
General Integration Accuracy     IntAcc      ... 3.816
Radial Grid Type                 RadialGrid  ... OptM3 with GC (2021)
Angular Grid (max. ang.)         AngularGrid ... 1 (Lebedev-50)
Angular grid pruning method      GridPruning ... 4 (adaptive)
Weight generation scheme         WeightScheme... mBecke (2022)
Basis function cutoff            BFCut       ... 1.0000e-11
Integration weight cutoff        WCut        ... 1.0000e-14
Partially contracted basis set               ... on
Rotationally invariant grid construction     ... off
Angular grids for H and He will be reduced by one unit

Total number of grid points                  ...    27430
Total number of batches                      ...      241
Average number of points per batch           ...      113
Average number of grid points per atom       ...      610
UseSFitting                                  ... on

GRIDX 2
-------
General Integration Accuracy     IntAcc      ... 4.020
Radial Grid Type                 RadialGrid  ... OptM3 with GC (2021)
Angular Grid (max. ang.)         AngularGrid ... 2 (Lebedev-110)
Angular grid pruning method      GridPruning ... 4 (adaptive)
Weight generation scheme         WeightScheme... mBecke (2022)
Basis function cutoff            BFCut       ... 1.0000e-11
Integration weight cutoff        WCut        ... 1.0000e-14
Partially contracted basis set               ... on
Rotationally invariant grid construction     ... off
Angular grids for H and He will be reduced by one unit

Total number of grid points                  ...    59667
Total number of batches                      ...      488
Average number of points per batch           ...      122
Average number of grid points per atom       ...     1326
UseSFitting                                  ... on

GRIDX 3
-------
General Integration Accuracy     IntAcc      ... 4.338
Radial Grid Type                 RadialGrid  ... OptM3 with GC (2021)
Angular Grid (max. ang.)         AngularGrid ... 3 (Lebedev-194)
Angular grid pruning method      GridPruning ... 4 (adaptive)
Weight generation scheme         WeightScheme... mBecke (2022)
Basis function cutoff            BFCut       ... 1.0000e-11
Integration weight cutoff        WCut        ... 1.0000e-14
Partially contracted basis set               ... on
Rotationally invariant grid construction     ... off
Angular grids for H and He will be reduced by one unit

Total number of grid points                  ...   130525
Total number of batches                      ...     1043
Average number of points per batch           ...      125
Average number of grid points per atom       ...     2901
UseSFitting                                  ... on
Grids setup in   1.6 sec
Initializing property integral containers    ... done (  0.1 sec)

SHARK setup successfully completed in   1.9 seconds

Maximum memory used throughout the entire STARTUP-calculation: 57.4 MB


           ************************************************************
           *        Program running with 8 parallel MPI-processes     *
           *              working on a common directory               *
           ************************************************************
-------------------------------------------------------------------------------
                                 ORCA GUESS
                   Start orbitals & Density for SCF / CASSCF
-------------------------------------------------------------------------------

------------
SCF SETTINGS
------------
Hamiltonian:
 Density Functional     Method          .... DFT(GTOs)
 Exchange Functional    Exchange        .... B88
   X-Alpha parameter    XAlpha          ....  0.666667
   Becke's b parameter  XBeta           ....  0.004200
 Correlation Functional Correlation     .... LYP
 LDA part of GGA corr.  LDAOpt          .... VWN-5
 Gradients option       PostSCFGGA      .... off
 Hybrid DFT is turned on
   Fraction HF Exchange ScalHFX         ....  0.200000
   Scaling of DF-GGA-X  ScalDFX         ....  0.720000
   Scaling of DF-GGA-C  ScalDFC         ....  0.810000
   Scaling of DF-LDA-C  ScalLDAC        ....  1.000000
   Perturbative correction              ....  0.000000
   NL short-range parameter             ....  4.800000
 RI-approximation to the Coulomb term is turned on
   Number of AuxJ basis functions       .... 1483
   RIJ-COSX (HFX calculated with COS-X)).... on


General Settings:
 Integral files         IntName         .... input\CMR_GOLD_090_optfreq
 Hartree-Fock type      HFTyp           .... RHF
 Total Charge           Charge          ....    0
 Multiplicity           Mult            ....    1
 Number of Electrons    NEL             ....  186
 Basis Dimension        Dim             ....  459
 Nuclear Repulsion      ENuc            ....   2265.2094365684 Eh

Convergence Acceleration:
 AO-DIIS                CNVDIIS         .... on
   Start iteration      DIISMaxIt       ....    12
   Startup error        DIISStart       ....  0.200000
   # of expansion vecs  DIISMaxEq       ....     5
   Bias factor          DIISBfac        ....   1.050
   Max. coefficient     DIISMaxC        ....  10.000
 MO-DIIS                CNVKDIIS        .... off
 Trust-Rad. Augm. Hess. CNVTRAH         .... auto
   Auto Start mean grad. ratio tolernc. ....  1.125000
   Auto Start start iteration           ....    50
   Auto Start num. interpolation iter.  ....    10
   Max. Number of Micro iterations      ....    24
   Max. Number of Macro iterations      .... Maxiter - #DIIS iter
   Number of Davidson start vectors     ....     2
   Converg. threshold    (grad. norm)   ....   1.000e-05
   Grad. Scal. Fac. for Micro threshold ....   0.100
   Minimum threshold for Micro iter.    ....   1.000e-02
   NR start threshold (gradient norm)   ....   1.000e-04
   Initial trust radius                 ....   0.400
   Minimum AH scaling param. (alpha)    ....   1.000
   Maximum AH scaling param. (alpha)    .... 1000.000
   Quad. conv. algorithm                .... NR
   White noise on init. David. guess    .... on
   Maximum white noise                  ....   0.010
   Pseudo random numbers                .... off
   Inactive MOs                         .... canonical
   Orbital update algorithm             .... Taylor
   Preconditioner                       .... Diag
   Full preconditioner red. dimension   ....   250
 SOSCF                 CNVSOSCF           .... on
   Start iteration     SOSCFMaxIt         ....   150
   Startup grad/error  SOSCFStart         ....  0.003300
   Hessian update      SOSCFHessUp        .... L-BFGS
   Autom. constraints  SOSCFAutoConstrain .... off
 Level Shifting         CNVShift        .... on
   Level shift para.    LevelShift      ....    0.2500
   Turn off err/grad.   ShiftErr        ....    0.0010
 Zerner damping         CNVZerner       .... off
 Static damping         CNVDamp         .... on
   Fraction old density DampFac         ....    0.7000
   Max. Damping (<1)    DampMax         ....    0.9800
   Min. Damping (>=0)   DampMin         ....    0.0000
   Turn off err/grad.   DampErr         ....    0.1000

SCF Procedure:
 Maximum # iterations   MaxIter         ....   500
 SCF integral mode      SCFMode         .... Direct
   Integral package                     .... SHARK and LIBINT hybrid scheme
 Reset frequency        DirectResetFreq ....    20
 Integral Threshold     Thresh          ....  2.500e-11 Eh
 Primitive CutOff       TCut            ....  2.500e-12 Eh

Convergence Tolerance:
 Convergence Check Mode ConvCheckMode   .... Total+1el-Energy
 Convergence forced     ConvForced      .... 0
 Energy Change          TolE            ....  1.000e-08 Eh
 1-El. energy change                    ....  1.000e-05 Eh
 Orbital Gradient       TolG            ....  1.000e-05
 Orbital Rotation angle TolX            ....  1.000e-05
 DIIS Error             TolErr          ....  5.000e-07

------------------------------
INITIAL GUESS: MODEL POTENTIAL
------------------------------
Loading Hartree-Fock densities                     ... done
Calculating cut-offs                               ... done
Initializing the effective Hamiltonian             ... done
Setting up the integral package (SHARK)            ... done
Starting the Coulomb interaction                   ... done (   0.1 sec)
Making the grid                                    ... done (   0.3 sec)
Mapping shells                                     ... done
Starting the XC term evaluation                    ... done (   0.1 sec)
  promolecular density results
     # of electrons  =    185.985545910
     EX              =   -156.066655642
     EC              =     -6.389090176
     EX+EC           =   -162.455745818
Transforming the Hamiltonian                       ... done (   0.0 sec)
Diagonalizing the Hamiltonian                      ... done (   0.0 sec)
Back transforming the eigenvectors                 ... done (   0.0 sec)
Now organizing SCF variables                       ... done
                      ------------------
                      INITIAL GUESS DONE (   0.6 sec)
                      ------------------
             **** ENERGY FILE WAS UPDATED (input\CMR_GOLD_090_optfreq.en.tmp) ****
Finished Guess after   0.7 sec
Maximum memory used throughout the entire GUESS-calculation: 24.2 MB


           ************************************************************
           *        Program running with 8 parallel MPI-processes     *
           *              working on a common directory               *
           ************************************************************

-------------------------------------------------------------------------------------------
                                      ORCA LEAN-SCF
                              memory conserving SCF solver
-------------------------------------------------------------------------------------------

--------------------
CPCM SOLVATION MODEL
--------------------
CPCM parameters:
  Epsilon                                         ...      80.1510
  Refrac                                          ...       1.3328
  Rsolv                                           ...       1.3000
  Surface type                                    ... GAUSSIAN VDW
  Discretization scheme                           ... Constant charge density
    Threshold for H atoms                         ...       5.0000 (charges/Ang^2)
    Threshold for non-H atoms                     ...       5.0000 (charges/Ang^2)
  Epsilon function type                           ...         CPCM
Solvent:                                          ... WATER
Radii:
  Scheme                                          ... Element-dependent radii
  Radius for O  used is    3.4469 Bohr (=   1.8240 Ang.)
  Radius for C  used is    3.8550 Bohr (=   2.0400 Ang.)
  Radius for N  used is    3.5149 Bohr (=   1.8600 Ang.)
  Radius for H  used is    2.4944 Bohr (=   1.3200 Ang.)
Calculating surface                               ...        done! (  0.0s)
Cavity surface points                             ...         3886
Cavity Volume                                     ...    2763.1671
Cavity Surface-area                               ...    1386.0797
Calculating surface distance matrix               ...        done! (  0.1s)
Performing Cholesky decomposition & store         ...        done! (  0.3s)
Overall time for CPCM initialization              ...                 0.4s

----------------------------------------D-I-I-S--------------------------------------------
Iteration    Energy (Eh)           Delta-E    RMSDP     MaxDP     DIISErr   Damp  Time(sec)
-------------------------------------------------------------------------------------------
               ***  Starting incremental Fock matrix formation  ***
    1    -1202.3243954038298398     0.00e+00  6.64e-03  9.65e-02  2.65e-01  0.700   2.9
    2    -1202.5860047239061714    -2.62e-01  4.35e-03  5.17e-02  9.68e-02  0.700   1.7
                               ***Turning on AO-DIIS***
    3    -1202.6876295063257203    -1.02e-01  1.89e-03  2.21e-02  3.32e-02  0.700   1.6
    4    -1202.7511416109032325    -6.35e-02  3.46e-03  3.09e-02  1.70e-02  0.000   1.5
    5    -1202.8895900996340060    -1.38e-01  5.59e-04  6.64e-03  6.07e-03  0.000   1.6
                              *** Initializing SOSCF ***
---------------------------------------S-O-S-C-F--------------------------------------
Iteration    Energy (Eh)           Delta-E    RMSDP     MaxDP     MaxGrad    Time(sec)
--------------------------------------------------------------------------------------
    6    -1202.8904536721756813    -8.64e-04  1.82e-04  2.13e-03  1.87e-03     1.5
               *** Restarting incremental Fock matrix formation ***
    7    -1202.8905009224563400    -4.73e-05  1.43e-04  1.90e-03  2.25e-04     2.8
    8    -1202.8904927561475233     8.17e-06  6.88e-05  1.38e-03  4.04e-04     2.0
    9    -1202.8905121300672363    -1.94e-05  3.16e-05  4.28e-04  7.72e-05     1.9
   10    -1202.8905117894423711     3.41e-07  1.64e-05  2.52e-04  1.04e-04     1.7
   11    -1202.8905127084049127    -9.19e-07  8.47e-06  1.30e-04  2.57e-05     1.6
   12    -1202.8905126829722576     2.54e-08  5.11e-06  8.62e-05  2.64e-05     1.5
   13    -1202.8905127486646052    -6.57e-08  1.27e-06  2.57e-05  3.18e-06     1.5
   14    -1202.8905127405728308     8.09e-09  7.70e-07  1.05e-05  4.90e-06     1.3
                 **** Energy Check signals convergence ****

               *****************************************************
               *                     SUCCESS                       *
               *           SCF CONVERGED AFTER  14 CYCLES          *
               *****************************************************

Recomputing exchange energy using gridx3       ... done (    4.014 sec)
Old exchange energy                            :    -31.592633119 Eh
New exchange energy                            :    -31.592679859 Eh
Exchange energy change after final integration :     -0.000046740 Eh
Total energy after final integration           :  -1202.890559507 Eh
             **** ENERGY FILE WAS UPDATED (input\CMR_GOLD_090_optfreq.en.tmp) ****

----------------
TOTAL SCF ENERGY
----------------

Total Energy       :      -1202.89055950655779 Eh          -32732.31620 eV

Components:
Nuclear Repulsion  :       2265.20943656837517 Eh           61639.48246 eV
Electronic Energy  :      -3468.07793514424475 Eh          -94371.19835 eV
One Electron Energy:      -6141.50452873416361 Eh         -167118.83438 eV
Two Electron Energy:       2673.42659358991887 Eh           72747.63603 eV
CPCM Dielectric    :         -0.02201419101773 Eh              -0.59904 eV

Virial components:
Potential Energy   :      -2394.36847114825923 Eh          -65154.07847 eV
Kinetic Energy     :       1191.47791164170144 Eh           32421.76227 eV
Virial Ratio       :          2.00957856436393

DFT components:
N(Alpha)           :       93.000046858644 electrons
N(Beta)            :       93.000046858644 electrons
N(Total)           :      186.000093717288 electrons
E(X)               :     -125.600395499613 Eh       
E(C)               :       -7.514175178539 Eh       
E(XC)              :     -133.114570678152 Eh       

CPCM Solvation Model Properties:
Surface-charge          :         -0.02730442080919
Corrected charge        :         -0.00000000000000
Outlying charge corr.   :          0.00003682315469 Eh               0.00100 eV
Free-energy (cav+disp)  :  This term is not implemented in the current solvation scheme

---------------
SCF CONVERGENCE
---------------

  Last Energy change         ...   -8.0918e-09  Tolerance :   1.0000e-08
  Last MAX-Density change    ...    1.0487e-05  Tolerance :   1.0000e-07
  Last RMS-Density change    ...    7.7023e-07  Tolerance :   5.0000e-09
  Last DIIS Error            ...    1.8654e-03  Tolerance :   5.0000e-07
  Last Orbital Gradient      ...    4.8963e-06  Tolerance :   1.0000e-05
  Last Orbital Rotation      ...    9.0031e-06  Tolerance :   1.0000e-05


----------------
ORBITAL ENERGIES
----------------

  NO   OCC          E(Eh)            E(eV) 
   0   2.0000     -19.197522      -522.3911 
   1   2.0000     -19.164369      -521.4890 
   2   2.0000     -19.162003      -521.4246 
   3   2.0000     -19.127356      -520.4818 
   4   2.0000     -19.124277      -520.3980 
   5   2.0000     -14.351564      -390.5259 
   6   2.0000     -10.331700      -281.1398 
   7   2.0000     -10.280859      -279.7564 
   8   2.0000     -10.268842      -279.4294 
   9   2.0000     -10.266784      -279.3734 
  10   2.0000     -10.249670      -278.9077 
  11   2.0000     -10.247571      -278.8506 
  12   2.0000     -10.231288      -278.4075 
  13   2.0000     -10.230159      -278.3768 
  14   2.0000     -10.222218      -278.1607 
  15   2.0000     -10.203632      -277.6549 
  16   2.0000     -10.202939      -277.6361 
  17   2.0000     -10.201432      -277.5951 
  18   2.0000     -10.200029      -277.5569 
  19   2.0000     -10.198669      -277.5199 
  20   2.0000     -10.195008      -277.4203 
  21   2.0000     -10.191315      -277.3198 
  22   2.0000     -10.186018      -277.1757 
  23   2.0000     -10.185811      -277.1700 
  24   2.0000     -10.180864      -277.0354 
  25   2.0000     -10.179992      -277.0117 
  26   2.0000      -1.097804       -29.8728 
  27   2.0000      -1.053070       -28.6555 
  28   2.0000      -1.050688       -28.5907 
  29   2.0000      -1.035604       -28.1802 
  30   2.0000      -1.017216       -27.6798 
  31   2.0000      -0.931938       -25.3593 
  32   2.0000      -0.865150       -23.5419 
  33   2.0000      -0.846676       -23.0392 
  34   2.0000      -0.808063       -21.9885 
  35   2.0000      -0.773239       -21.0409 
  36   2.0000      -0.758938       -20.6518 
  37   2.0000      -0.756079       -20.5740 
  38   2.0000      -0.744730       -20.2651 
  39   2.0000      -0.724106       -19.7039 
  40   2.0000      -0.703864       -19.1531 
  41   2.0000      -0.688719       -18.7410 
  42   2.0000      -0.669712       -18.2238 
  43   2.0000      -0.650560       -17.7026 
  44   2.0000      -0.634323       -17.2608 
  45   2.0000      -0.607274       -16.5248 
  46   2.0000      -0.597836       -16.2679 
  47   2.0000      -0.582807       -15.8590 
  48   2.0000      -0.571412       -15.5489 
  49   2.0000      -0.558609       -15.2005 
  50   2.0000      -0.547002       -14.8847 
  51   2.0000      -0.536270       -14.5927 
  52   2.0000      -0.509059       -13.8522 
  53   2.0000      -0.500890       -13.6299 
  54   2.0000      -0.496451       -13.5091 
  55   2.0000      -0.485153       -13.2017 
  56   2.0000      -0.478341       -13.0163 
  57   2.0000      -0.475434       -12.9372 
  58   2.0000      -0.471503       -12.8302 
  59   2.0000      -0.464830       -12.6487 
  60   2.0000      -0.462819       -12.5939 
  61   2.0000      -0.456930       -12.4337 
  62   2.0000      -0.449689       -12.2367 
  63   2.0000      -0.443536       -12.0692 
  64   2.0000      -0.441182       -12.0052 
  65   2.0000      -0.437890       -11.9156 
  66   2.0000      -0.429251       -11.6805 
  67   2.0000      -0.423476       -11.5234 
  68   2.0000      -0.416308       -11.3283 
  69   2.0000      -0.413178       -11.2431 
  70   2.0000      -0.403897       -10.9906 
  71   2.0000      -0.391344       -10.6490 
  72   2.0000      -0.389071       -10.5872 
  73   2.0000      -0.387547       -10.5457 
  74   2.0000      -0.383729       -10.4418 
  75   2.0000      -0.379798       -10.3348 
  76   2.0000      -0.377628       -10.2758 
  77   2.0000      -0.375014       -10.2046 
  78   2.0000      -0.359036        -9.7699 
  79   2.0000      -0.353963        -9.6318 
  80   2.0000      -0.345373        -9.3981 
  81   2.0000      -0.340638        -9.2692 
  82   2.0000      -0.334772        -9.1096 
  83   2.0000      -0.330314        -8.9883 
  84   2.0000      -0.318829        -8.6758 
  85   2.0000      -0.301544        -8.2054 
  86   2.0000      -0.289878        -7.8880 
  87   2.0000      -0.271801        -7.3961 
  88   2.0000      -0.262000        -7.1294 
  89   2.0000      -0.252306        -6.8656 
  90   2.0000      -0.240266        -6.5380 
  91   2.0000      -0.235455        -6.4071 
  92   2.0000      -0.216580        -5.8934 
  93   0.0000      -0.076458        -2.0805 
  94   0.0000      -0.033388        -0.9085 
  95   0.0000      -0.010467        -0.2848 
  96   0.0000      -0.010266        -0.2794 
  97   0.0000       0.011348         0.3088 
  98   0.0000       0.016828         0.4579 
  99   0.0000       0.066839         1.8188 
 100   0.0000       0.072512         1.9732 
 101   0.0000       0.077566         2.1107 
 102   0.0000       0.083970         2.2849 
 103   0.0000       0.090238         2.4555 
*Only the first 10 virtual orbitals were printed.

                    ********************************
                    * MULLIKEN POPULATION ANALYSIS *
                    ********************************

-----------------------
MULLIKEN ATOMIC CHARGES
-----------------------
   0 O :   -0.255480
   1 C :    0.251992
   2 C :   -0.134723
   3 C :    0.178664
   4 C :    0.011613
   5 C :    0.209266
   6 C :   -0.040821
   7 C :    0.029509
   8 C :    0.018059
   9 C :   -0.033658
  10 O :   -0.286742
  11 O :   -0.283633
  12 C :   -0.111061
  13 C :    0.112391
  14 N :   -0.164602
  15 C :    0.254811
  16 C :   -0.114176
  17 C :   -0.043676
  18 C :   -0.108795
  19 C :    0.253538
  20 O :   -0.340629
  21 C :    0.180557
  22 C :   -0.151107
  23 C :    0.220394
  24 O :   -0.346277
  25 C :    0.183099
  26 H :    0.002048
  27 H :    0.018716
  28 H :    0.009332
  29 H :   -0.001880
  30 H :    0.048867
  31 H :    0.039364
  32 H :    0.027439
  33 H :    0.147571
  34 H :    0.033048
  35 H :    0.017503
  36 H :   -0.009250
  37 H :   -0.012437
  38 H :    0.038305
  39 H :    0.033469
  40 H :    0.033363
  41 H :   -0.024304
  42 H :    0.034570
  43 H :    0.036405
  44 H :    0.039357
Sum of atomic charges:    0.0000000

--------------------------------
MULLIKEN REDUCED ORBITAL CHARGES
--------------------------------
  0 O s       :     3.730374  s :     3.730374
      pz      :     1.524083  p :     4.507989
      px      :     1.538043
      py      :     1.445862
      dz2     :     0.003701  d :     0.017118
      dxz     :     0.005008
      dyz     :     0.004029
      dx2y2   :     0.002263
      dxy     :     0.002116

  1 C s       :     3.045731  s :     3.045731
      pz      :     0.973664  p :     2.578083
      px      :     0.789616
      py      :     0.814802
      dz2     :     0.037320  d :     0.124194
      dxz     :     0.026382
      dyz     :     0.017739
      dx2y2   :     0.020437
      dxy     :     0.022316

  2 C s       :     3.103651  s :     3.103651
      pz      :     0.866991  p :     2.999174
      px      :     1.091947
      py      :     1.040236
      dz2     :     0.008436  d :     0.031898
      dxz     :     0.006747
      dyz     :     0.007218
      dx2y2   :     0.004071
      dxy     :     0.005426

  3 C s       :     3.070921  s :     3.070921
      pz      :     0.889262  p :     2.655643
      px      :     0.888400
      py      :     0.877981
      dz2     :     0.022928  d :     0.094772
      dxz     :     0.025616
      dyz     :     0.025315
      dx2y2   :     0.011642
      dxy     :     0.009270

  4 C s       :     3.132789  s :     3.132789
      pz      :     0.883625  p :     2.816657
      px      :     0.938298
      py      :     0.994734
      dz2     :     0.011136  d :     0.038941
      dxz     :     0.008932
      dyz     :     0.007405
      dx2y2   :     0.005153
      dxy     :     0.006315

  5 C s       :     3.007504  s :     3.007504
      pz      :     0.921199  p :     2.713769
      px      :     0.892462
      py      :     0.900108
      dz2     :     0.015004  d :     0.069462
      dxz     :     0.018594
      dyz     :     0.014913
      dx2y2   :     0.010759
      dxy     :     0.010192

  6 C s       :     3.282754  s :     3.282754
      pz      :     0.794599  p :     2.725214
      px      :     0.955175
      py      :     0.975440
      dz2     :     0.008395  d :     0.032854
      dxz     :     0.007254
      dyz     :     0.005166
      dx2y2   :     0.006250
      dxy     :     0.005788

  7 C s       :     3.180739  s :     3.180739
      pz      :     0.942999  p :     2.754097
      px      :     0.881224
      py      :     0.929874
      dz2     :     0.009648  d :     0.035655
      dxz     :     0.009483
      dyz     :     0.007632
      dx2y2   :     0.004260
      dxy     :     0.004631

  8 C s       :     3.174221  s :     3.174221
      pz      :     0.903266  p :     2.773149
      px      :     0.929847
      py      :     0.940036
      dz2     :     0.008403  d :     0.034571
      dxz     :     0.009784
      dyz     :     0.006735
      dx2y2   :     0.004442
      dxy     :     0.005205

  9 C s       :     3.299236  s :     3.299236
      pz      :     0.837816  p :     2.699613
      px      :     0.921603
      py      :     0.940194
      dz2     :     0.007935  d :     0.034808
      dxz     :     0.008992
      dyz     :     0.005338
      dx2y2   :     0.006717
      dxy     :     0.005826

[...]
123:   3146.15   0.000297    1.50  0.000029  ( 0.001875  0.004732 -0.001872)
124:   3149.10   0.004152   20.98  0.000411  ( 0.018351 -0.004833 -0.007163)
125:   3154.32   0.003522   17.80  0.000348  (-0.005119  0.017901 -0.001328)
126:   3172.55   0.003417   17.27  0.000336  ( 0.014948  0.004106 -0.009791)
127:   3185.16   0.000489    2.47  0.000048  (-0.000920 -0.000079 -0.006861)
128:   3189.92   0.105231  531.79  0.010295  (-0.079898 -0.036007  0.051131)
129:   3195.57   0.001555    7.86  0.000152  ( 0.011461  0.001759 -0.004175)
130:   3196.76   0.000854    4.32  0.000083  ( 0.007447  0.004071 -0.003371)
131:   3206.71   0.000741    3.75  0.000072  ( 0.000860 -0.000235  0.008447)
132:   3211.19   0.001723    8.71  0.000167  (-0.011180 -0.005405  0.003631)
133:   3225.51   0.000571    2.89  0.000055  ( 0.004797 -0.005665  0.000365)
134:   3226.74   0.000086    0.44  0.000008  ( 0.000670 -0.002807 -0.000141)

* The epsilon (eps) is given for a Dirac delta lineshape.
** The dipole moment derivative (T) already includes vibrational overlap.

The first frequency considered to be a vibration is 6
The total number of vibrations considered is 129


--------------------------
THERMOCHEMISTRY AT 298.15K
--------------------------

Temperature         ...   298.15 K
Pressure            ...     1.00 atm
Total Mass          ...   353.37 AMU
Quasi RRHO          ...     True
Cut-Off Frequency   ...     1.00 cm^-1

Throughout the following assumptions are being made:
  (1) The electronic state is orbitally nondegenerate
  (2) There are no thermally accessible electronically excited states
  (3) Hindered rotations indicated by low frequency modes are not
      treated as such but are treated as vibrations and this may
      cause some error
  (4) All equations used are the standard statistical mechanics
      equations for an ideal gas
  (5) All vibrations are strictly harmonic

freq.      11.49  E(vib)   ...       0.58 
freq.      18.37  E(vib)   ...       0.57 
freq.      26.21  E(vib)   ...       0.56 
freq.      54.15  E(vib)   ...       0.52 
freq.      77.78  E(vib)   ...       0.49 
freq.      82.55  E(vib)   ...       0.48 
freq.      92.68  E(vib)   ...       0.47 
freq.     102.60  E(vib)   ...       0.46 
freq.     115.60  E(vib)   ...       0.44 
freq.     128.60  E(vib)   ...       0.43 
freq.     159.23  E(vib)   ...       0.39 
freq.     185.11  E(vib)   ...       0.37 
freq.     202.61  E(vib)   ...       0.35 
freq.     212.72  E(vib)   ...       0.34 
freq.     214.72  E(vib)   ...       0.34 
freq.     246.42  E(vib)   ...       0.31 
freq.     254.29  E(vib)   ...       0.30 
freq.     275.11  E(vib)   ...       0.28 
freq.     287.39  E(vib)   ...       0.27 
freq.     289.65  E(vib)   ...       0.27 
freq.     304.85  E(vib)   ...       0.26 
freq.     312.76  E(vib)   ...       0.25 
freq.     340.47  E(vib)   ...       0.23 
freq.     365.23  E(vib)   ...       0.22 
freq.     368.98  E(vib)   ...       0.21 
freq.     409.21  E(vib)   ...       0.19 
freq.     443.42  E(vib)   ...       0.17 
freq.     446.16  E(vib)   ...       0.17 
freq.     451.80  E(vib)   ...       0.16 
freq.     463.28  E(vib)   ...       0.16 
freq.     475.88  E(vib)   ...       0.15 
freq.     526.73  E(vib)   ...       0.13 
freq.     531.30  E(vib)   ...       0.13 
freq.     545.44  E(vib)   ...       0.12 
freq.     555.46  E(vib)   ...       0.12 
freq.     586.32  E(vib)   ...       0.11 
freq.     594.97  E(vib)   ...       0.10 
freq.     628.22  E(vib)   ...       0.09 
freq.     659.30  E(vib)   ...       0.08 
freq.     676.82  E(vib)   ...       0.08 
freq.     697.34  E(vib)   ...       0.07 
freq.     703.33  E(vib)   ...       0.07 
freq.     710.96  E(vib)   ...       0.07 
freq.     724.68  E(vib)   ...       0.06 
freq.     748.33  E(vib)   ...       0.06 
freq.     757.03  E(vib)   ...       0.06 
freq.     782.59  E(vib)   ...       0.05 
freq.     799.13  E(vib)   ...       0.05 
freq.     817.56  E(vib)   ...       0.05 
freq.     831.11  E(vib)   ...       0.04 
freq.     864.97  E(vib)   ...       0.04 
freq.     867.10  E(vib)   ...       0.04 
freq.     902.59  E(vib)   ...       0.03 
freq.     912.66  E(vib)   ...       0.03 
freq.     917.16  E(vib)   ...       0.03 
freq.     944.76  E(vib)   ...       0.03 
freq.     957.48  E(vib)   ...       0.03 
freq.     975.52  E(vib)   ...       0.03 
freq.     994.36  E(vib)   ...       0.02 
freq.     999.35  E(vib)   ...       0.02 
freq.    1015.93  E(vib)   ...       0.02 
freq.    1031.71  E(vib)   ...       0.02 
freq.    1043.93  E(vib)   ...       0.02 
freq.    1048.13  E(vib)   ...       0.02 
freq.    1060.83  E(vib)   ...       0.02 
freq.    1081.39  E(vib)   ...       0.02 
freq.    1096.28  E(vib)   ...       0.02 
freq.    1117.69  E(vib)   ...       0.01 
freq.    1144.81  E(vib)   ...       0.01 
freq.    1150.47  E(vib)   ...       0.01 
freq.    1167.55  E(vib)   ...       0.01 
freq.    1167.87  E(vib)   ...       0.01 
freq.    1169.61  E(vib)   ...       0.01 
freq.    1186.25  E(vib)   ...       0.01 
freq.    1201.44  E(vib)   ...       0.01 
freq.    1209.20  E(vib)   ...       0.01 
freq.    1238.61  E(vib)   ...       0.01 
freq.    1242.01  E(vib)   ...       0.01 
freq.    1261.63  E(vib)   ...       0.01 
freq.    1271.30  E(vib)   ...       0.01 
freq.    1285.29  E(vib)   ...       0.01 
freq.    1301.70  E(vib)   ...       0.01 
freq.    1324.63  E(vib)   ...       0.01 
freq.    1344.60  E(vib)   ...       0.01 
freq.    1350.34  E(vib)   ...       0.01 
freq.    1366.39  E(vib)   ...       0.01 
freq.    1385.43  E(vib)   ...       0.00 
freq.    1388.44  E(vib)   ...       0.00 
freq.    1398.38  E(vib)   ...       0.00 
freq.    1427.13  E(vib)   ...       0.00 
freq.    1444.48  E(vib)   ...       0.00 
freq.    1447.51  E(vib)   ...       0.00 
freq.    1452.50  E(vib)   ...       0.00 
freq.    1454.12  E(vib)   ...       0.00 
freq.    1457.89  E(vib)   ...       0.00 
freq.    1465.83  E(vib)   ...       0.00 
freq.    1467.10  E(vib)   ...       0.00 
freq.    1472.08  E(vib)   ...       0.00 
freq.    1493.17  E(vib)   ...       0.00 
freq.    1497.27  E(vib)   ...       0.00 
freq.    1510.78  E(vib)   ...       0.00 
freq.    1520.58  E(vib)   ...       0.00 
freq.    1545.17  E(vib)   ...       0.00 
freq.    1629.15  E(vib)   ...       0.00 
freq.    1630.98  E(vib)   ...       0.00 
freq.    1650.01  E(vib)   ...       0.00 
freq.    1659.85  E(vib)   ...       0.00 
freq.    1666.09  E(vib)   ...       0.00 
freq.    1667.49  E(vib)   ...       0.00 
freq.    1772.15  E(vib)   ...       0.00 
freq.    3011.40  E(vib)   ...       0.00 
freq.    3016.52  E(vib)   ...       0.00 
freq.    3071.18  E(vib)   ...       0.00 
freq.    3079.08  E(vib)   ...       0.00 
freq.    3089.72  E(vib)   ...       0.00 
freq.    3097.53  E(vib)   ...       0.00 
freq.    3142.89  E(vib)   ...       0.00 
freq.    3146.15  E(vib)   ...       0.00 
freq.    3149.10  E(vib)   ...       0.00 
freq.    3154.32  E(vib)   ...       0.00 
freq.    3172.55  E(vib)   ...       0.00 
freq.    3185.16  E(vib)   ...       0.00 
freq.    3189.92  E(vib)   ...       0.00 
freq.    3195.57  E(vib)   ...       0.00 
freq.    3196.76  E(vib)   ...       0.00 
freq.    3206.71  E(vib)   ...       0.00 
freq.    3211.19  E(vib)   ...       0.00 
freq.    3225.51  E(vib)   ...       0.00 
freq.    3226.74  E(vib)   ...       0.00 

------------
INNER ENERGY
------------

The inner energy is: U= E(el) + E(ZPE) + E(vib) + E(rot) + E(trans)
    E(el)   - is the total energy from the electronic structure calculation
              = E(kin-el) + E(nuc-el) + E(el-el) + E(nuc-nuc)
    E(ZPE)  - the the zero temperature vibrational energy from the frequency calculation
    E(vib)  - the the finite temperature correction to E(ZPE) due to population
              of excited vibrational states
    E(rot)  - is the rotational thermal energy
    E(trans)- is the translational thermal energy

Summary of contributions to the inner energy U:
Electronic energy                ...  -1203.01431360 Eh
Zero point energy                ...      0.35717806 Eh     224.13 kcal/mol
Thermal vibrational correction   ...      0.02009597 Eh      12.61 kcal/mol
Thermal rotational correction    ...      0.00141627 Eh       0.89 kcal/mol
Thermal translational correction ...      0.00141627 Eh       0.89 kcal/mol
-----------------------------------------------------------------------
Total thermal energy                  -1202.63420703 Eh


Summary of corrections to the electronic energy:
(perhaps to be used in another calculation)
Total thermal correction                  0.02292851 Eh      14.39 kcal/mol
Non-thermal (ZPE) correction              0.35717806 Eh     224.13 kcal/mol
-----------------------------------------------------------------------
Total correction                          0.38010657 Eh     238.52 kcal/mol


--------
ENTHALPY
--------

The enthalpy is H = U + kB*T
                kB is Boltzmann's constant
Total thermal energy              ...  -1202.63420703 Eh 
Thermal Enthalpy correction       ...      0.00094421 Eh       0.59 kcal/mol
-----------------------------------------------------------------------
Total Enthalpy                    ...  -1202.63326282 Eh


Note: Only C1 symmetry has been detected, increase convergence thresholds 
      if your molecule has a higher symmetry. Symmetry factor of 1.0 is   
      used for the rotational entropy correction. 
 

Note: Rotational entropy computed according to Herzberg 
Infrared and Raman Spectra, Chapter V,1, Van Nostrand Reinhold, 1945 
Point Group:  C1, Symmetry Number:   1  
Rotational constants in cm-1:     0.013379     0.002997     0.002830 

Vibrational entropy computed according to the QRRHO of S. Grimme
Chem.Eur.J. 2012 18 9955 using a reference frequency of 100.0 cm-1


-------
ENTROPY
-------

The entropy contributions are T*S = T*(S(el)+S(vib)+S(rot)+S(trans))
     S(el)   - electronic entropy
     S(vib)  - vibrational entropy
     S(rot)  - rotational entropy
     S(trans)- translational entropy
The entropies will be listed as multiplied by the temperature to get
units of energy

Electronic entropy                ...      0.00000000 Eh      0.00 kcal/mol
Vibrational entropy               ...      0.03593965 Eh     22.55 kcal/mol
Rotational entropy                ...      0.01706023 Eh     10.71 kcal/mol
Translational entropy             ...      0.02065908 Eh     12.96 kcal/mol
-----------------------------------------------------------------------
Final entropy term                ...      0.07365897 Eh     46.22 kcal/mol

In case the symmetry of your molecule has not been determined correctly
or in case you have a reason to use a different symmetry number we print 
out the resulting rotational entropy values for sn=1,12:

 non-linear molecules -----------------------------------
|  sn= 1 | S(rot)=       0.01706023 Eh     10.71 kcal/mol|
|  sn= 2 | S(rot)=       0.01640577 Eh     10.29 kcal/mol|
|  sn= 3 | S(rot)=       0.01602294 Eh     10.05 kcal/mol|
|  sn= 4 | S(rot)=       0.01575132 Eh      9.88 kcal/mol|
|  sn= 5 | S(rot)=       0.01554063 Eh      9.75 kcal/mol|
|  sn= 6 | S(rot)=       0.01536849 Eh      9.64 kcal/mol|
|  sn= 7 | S(rot)=       0.01522294 Eh      9.55 kcal/mol|
|  sn= 8 | S(rot)=       0.01509686 Eh      9.47 kcal/mol|
|  sn= 9 | S(rot)=       0.01498565 Eh      9.40 kcal/mol|
|  sn=10 | S(rot)=       0.01488617 Eh      9.34 kcal/mol|
|  sn=11 | S(rot)=       0.01479618 Eh      9.28 kcal/mol|
|  sn=12 | S(rot)=       0.01471403 Eh      9.23 kcal/mol|
 linear molecules ---------------------------------------
|  Dinfh | S(rot)=       0.01086561 Eh      6.82 kcal/mol|
|  Cinfv | S(rot)=       0.01152007 Eh      7.23 kcal/mol|
 --------------------------------------------------------


-------------------
GIBBS FREE ENERGY
-------------------

The Gibbs free energy is G = H - T*S

Total enthalpy                    ...  -1202.63326282 Eh 
Total entropy correction          ...     -0.07365897 Eh    -46.22 kcal/mol
-----------------------------------------------------------------------
Final Gibbs free energy         ...  -1202.70692179 Eh

For completeness - the Gibbs free energy minus the electronic energy
G-E(el)                           ...      0.30739181 Eh    192.89 kcal/mol


Maximum memory used throughout the entire PROP-calculation: 293.9 MB

--------------------------------
SUGGESTED CITATIONS FOR THIS RUN
--------------------------------

Below you find a list of papers that are relevant to this ORCA run
We neither can nor want to force you to cite these papers, but we appreciate if you do
You receive ORCA, which is the product of decades of hard work by many enthusiastic individuals, for free
The only thing we kindly ask in return is that you cite our papers,
We deeply appreciate it, if you show your appreciation for ORCA by not just citing the generic ORCA reference.

Please note that relegating all ORCA citations to the supporting information does *not* help us.
SI sections are not indexed - citations you put there will not count into any citation statistics
But we need these citations in order to attract the funding resources that allow us to do what we are doing

Therefore, if you are a happy ORCA user, please consider citing a few of the papers listed below in the main body of your paper

In addition to the list printed below, the program has created the file input\CMR_GOLD_090_optfreq.bibtex that contains the list in bibtex format
You can import this file easily into all common literature databanks and citation aid programs

It goes without saying that in many instances, there are alternative algorithms to achieve similar
results as the ones you have gotten from ORCA. It is, of course, also the case that in some instances
ORCA just re-implements algorithms worked out by others. We are fully aware of that and we are also
fully appreciative of our colleagues work. Hence this citation list should not be read as indicating
that the listed papers, which are focused on our own work, are the only ones worth citing. It simply
meant to make it easier for users to cite ORCA specific papers. It is not a substitute for doing your
own literature research and citing the relevant literature in a scientifically appropriate manner.

List of essential papers. We consider these as the minimum necessary citations

  1. Neese, F.
     Software update: the ORCA program system, version 6.0
     WIRES Comput. Molec. Sci. 2025 15(1), e70019
     doi.org/10.1002/wcms.70019

List of papers to cite with high priority. The work reported in these papers was absolutely
necessary for this run to complete.
Our perspective: the developers of density functionals and basis sets usually get cited in chemistry papers
Good! But without the algorithms to do something with them, the functionals or basis sets would not do anything.
Hence, in our opinion, the algorithm design and method developments papers are equally worthy of getting cited

  1. Neese, F.
     An improvement of the resolution of the identity approximation for the formation of the Coulomb matrix
     J. Comp. Chem. 2003 24(14), 1740-1747
     doi.org/10.1002/jcc.10318
  2. Neese, F.; Wennmohs, F.; Hansen, A.; Becker, U.
     Efficient, approximate and parallel Hartree-Fock and hybrid DFT calculations. A 'chain-of-spheres' algorithm for the Hartree-Fock exchange
     Chem. Phys. 2009 356(1-3), 98-109
     doi.org/10.1016/j.chemphys.2008.10.036
  3. Grimme, S.; Antony, J.; Ehrlich, S.; Krieg, H.
     A consistent and accurate ab initio parametrization of density functional dispersion correction (DFT-D) for the 94 elements H-Pu
     J. Chem. Phys. 2010 132 , 154104
     doi.org/10.1063/1.3382344
  4. Grimme, S.; Ehrlich, S.; Goerigk, L.
     Effect of the damping function in dispersion corrected density functional theory
     J. Comput. Chem. 2011 32(7), 1456-1465
     doi.org/10.1002/jcc.21759
  5. Bykov, D.; Petrenko, T.; Izsak, R.; Kossmann, S.; Becker, U.; Valeev, E.; Neese, F.
     Efficient implementation of the analytic second derivatives of Hartree-Fock and hybrid DFT energies: a detailed analysis of different approximations
     Molec. Phys. 2015 113 , 1961-1977
     doi.org/10.1080/00268976.2015.1025114
  6. Garcia-Rates, M.; Neese, F.
     Efficient implementation of the analytical second derivatives of hartree-fock and hybrid DFT energies within the framework of the conductor-like polarizable continuum model
     J. Comput. Chem. 2019 40 , 1816-1828
     doi.org/10.1002/jcc.25833
  7. Garcia-Rates, M.; Neese, F.
     Effect of the Solute Cavity on the Solvation Energy and its Derivatives within the Framework of the Gaussian Charge Scheme
     J. Comput. Chem. 2020 41 , 922-939
     doi.org/10.1002/jcc.26139
  8. Helmich-Paris, B.; de Souza, B.; Neese, F.; Izsák, R.
     An improved chain of spheres for exchange algorithm
     J. Chem. Phys. 2021 155(10), 104109
     doi.org/10.1063/5.0058766
  9. Neese, F.
     The SHARK Integral Generation and Digestion System
     J. Comp. Chem. 2022 44(3), 381
     doi.org/10.1002/jcc.26942

List of suggested additional citations. These are papers that are important in the 'surrounding' of 
of this run, or papers that preceded the highly important papers. If you like your results we are grateful for a citation.

  1. Izsak, R.; Neese, F.
     An overlap fitted chain of spheres exchange method
     J. Chem. Phys. 2011 135 , 144105
     doi.org/10.1063/1.3646921
  2. Izsak, R.; Hansen, A.; Neese, F.
     The resolution of identity and chain of spheres approximations for the LPNO-CCSD singles Fock term
     Molec. Phys. 2012 110 , 2413-2417
     doi.org/10.1080/00268976.2012.687466
  3. Neese, F.
     The ORCA program system
     WIRES Comput. Molec. Sci. 2012 2(1), 73-78
     doi.org/10.1002/wcms.81
  4. Izsak, R.; Neese, F.; Klopper, W.
     Robust fitting techniques in the chain of spheres approximation to the Fock exchange: The role of the complementary space
     J. Chem. Phys. 2013 139 , 
     doi.org/10.1063/1.4819264
  5. Neese, F.
     Software update: the ORCA program system, version 4.0
     WIRES Comput. Molec. Sci. 2018 8(1), 1-6
     doi.org/10.1002/wcms.1327
  6. Neese, F.; Wennmohs, F.; Becker, U.; Riplinger, C.
     The ORCA quantum chemistry program package
     J. Chem. Phys. 2020 152(22), 224108
     doi.org/10.1063/5.0004608
  7. Neese, F.
     Software update: The ORCA program system—Version 5.0
     WIRES Comput. Molec. Sci. 2022 12(1), e1606
     doi.org/10.1002/wcms.1606

List of optional additional citations

  1. Neese, F.
     Approximate second-order SCF convergence for spin unrestricted wavefunctions
     Chem. Phys. Lett. 2000 325(1-3), 93-98
     doi.org/10.1016/s0009-2614(00)00662-x

Timings for individual modules:

Sum of individual times          ...     1198.253 sec (=  19.971 min)
Startup calculation              ...       31.458 sec (=   0.524 min)   2.6 %
SCF iterations                   ...      391.979 sec (=   6.533 min)  32.7 %
Property integrals               ...      131.338 sec (=   2.189 min)  11.0 %
SCF Response                     ...      262.818 sec (=   4.380 min)  21.9 %
Property calculations            ...      191.054 sec (=   3.184 min)  15.9 %
SCF Gradient evaluation          ...      189.288 sec (=   3.155 min)  15.8 %
Geometry relaxation              ...        0.318 sec (=   0.005 min)   0.0 %
                             ****ORCA TERMINATED NORMALLY****
TOTAL RUN TIME: 0 days 0 hours 20 minutes 2 seconds 269 msec
