
                                 *****************
                                 * O   R   C   A *
                                 *****************

                                            #,                                       
                                            ###                                      
                                            ####                                     
                                            #####                                    
                                            ######                                   
                                           ########,                                 
                                     ,,################,,,,,                         
                               ,,#################################,,                 
                          ,,##########################################,,             
                       ,#########################################, ''#####,          
                    ,#############################################,,   '####,        
                  ,##################################################,,,,####,       
                ,###########''''           ''''###############################       
              ,#####''   ,,,,##########,,,,          '''####'''          '####       
            ,##' ,,,,###########################,,,                        '##       
           ' ,,###''''                  '''############,,,                           
         ,,##''                                '''############,,,,        ,,,,,,###''
      ,#''                                            '''#######################'''  
     '                                                          ''''####''''         
             ,#######,   #######,   ,#######,      ##                                
            ,#'     '#,  ##    ##  ,#'     '#,    #''#        ,####,    ,#,          
            ##       ##  ##   ,#'  ##            #'  '#       #'       ,# #          
            ##       ##  #######   ##           ,######,      #####,      #          
            '#,     ,#'  ##    ##  '#,     ,#' ,#      #,     #,   #      #          
             '#######'   ##     ##  '#######'  #'      '#     '####' #    #          



                #########################################################
                #                        -***-                          #
                #          Department of theory and spectroscopy        #
                #                                                       #
                #                      Frank Neese                      #
                #                                                       #
                #     Directorship, Architecture, Infrastructure        #
                #                    SHARK, DRIVERS                     #
                #        Core code/Algorithms in most modules           #
                #                                                       #
                #        Max Planck Institute fuer Kohlenforschung      #
                #                Kaiser Wilhelm Platz 1                 #
                #                 D-45470 Muelheim/Ruhr                 #
                #                      Germany                          #
                #                                                       #
                #                  All rights reserved                  #
                #                        -***-                          #
                #########################################################


                         Program Version 6.1.1  -  RELEASE   -


 With contributions from (in alphabetic order):
[Max-Planck-Institut fuer Kohlenforschung]                               
  Daniel Aravena         : Magnetic Suceptibility                        
  Michael Atanasov       : Ab Initio Ligand Field Theory (pilot matlab implementation)
  Alexander A. Auer      : GIAO ZORA, VPT2 properties, NMR spectrum      
  Ute Becker             : All parallelization in ORCA, NUMFREQ, NUMCALC 
  Giovanni Bistoni       : ED, misc. LED, open-shell LED, HFLD           
  Dmytro Bykov           : pre 5.0 version of the SCF Hessian            
  Marcos Casanova-Páez   : Triplet and SCS-CIS(D). UHF-(DLPNO)-IP/EA/STEOM-CCSD. UHF-CVS-IP/STEOM-CCSD   
  Vijay G. Chilkuri      : MRCI spin determinant printing, contributions to CSF-ICE 
  Pauline Colinet        : FMM embedding                                 
  Dipayan Datta          : RHF DLPNO-CCSD density                        
  Achintya Kumar Dutta   : EOM-CC, STEOM-CC                              
  Nicolas Foglia         : Exact transition moments, OPA infrastructure, MCD improvements    
  Dmitry Ganyushin       : Spin-Orbit,Spin-Spin,Magnetic field MRCI      
  Miquel Garcia-Rates    : C-PCM and meta-GGA Hessian, CCSD/C-PCM, Gaussian charge scheme 
  Tiago L. C. Gouveia    : GS-ROHF, GS-ROCIS                             
  Yang Guo               : DLPNO-NEVPT2, F12-NEVPT2, CIM, IAO-localization        
  Andreas Hansen         : Spin unrestricted coupled pair/coupled cluster methods 
  Ingolf Harden          : AUTO-CI MPn and infrastructure                
  Benjamin Helmich-Paris : MC-RPA, TRAH-(SCF,CASSCF), AVAS, COSX integrals, SCF dyn. polar., MC-PDFT, srDFT 
  Lee Huntington         : MR-EOM, pCC                                   
  Robert Izsak           : Overlap fitted RIJCOSX, COSX-SCS-MP3, EOM     
  Riya Kayal             : Wick's Theorem for AUTO-CI, AUTO-CI UHF-CCSDT 
  Emily Kempfer          : AUTO-CI RHF CISDT and CCSDT, approximate NEVPT4
  Christian Kollmar      : KDIIS, OOCD, Brueckner-CCSD(T), CCSD density, CASPT2, CASPT2-K, improved NEVPT2 
  Axel Koslowski         : Symmetry handling                             
  Simone Kossmann        : meta-GGA functionals, TD-DFT gradient, OOMP2, (MP2 Hessian; deprecated post 5.0) 
  Lucas Lang             : DCDCAS, Hyperfine gauge corrections, ICE-SOC+SSC
  Marvin Lechner         : AUTO-CI (C++ implementation), FIC-MRCC        
  Spencer Leger          : CASSCF response                               
  Dagmar Lenk            : GEPOL surface, SMD, ORCA-2-JSON               
  Dimitrios Liakos       : Extrapolation schemes; Compound Job, Property file
  Dimitrios Manganas     : Further ROCIS development; embedding schemes. LFT, Crystal Embedding 
  Dimitrios Pantazis     : SARC Basis sets                               
  Anastasios Papadopoulos: AUTO-CI, single reference methods and gradients 
  Taras Petrenko         : pre 6.0 DFT Hessian and TD-DFT gradient,  ECA, NRVS 
  Petra Pikulova         : Analytic Raman intensities                    
  Peter Pinski           : DLPNO-MP2, DLPNO-MP2 Gradient                 
  Shashank Vittal Rao    : ES-AILFT, MagRelax                            
  Christoph Reimann      : Effective Core Potentials                     
  Marius Retegan         : Local ZFS, SOC                                
  Christoph Riplinger    : Optimizer, TS searches, QM/MM, DLPNO-CCSD(T), (RO)-DLPNO pert. Triples 
  Michael Roemelt        : Original ROCIS implementation, recursive CI coupling coefficients
  Masaaki Saitow         : Open-shell DLPNO-CCSD energy and density      
  Barbara Sandhoefer     : DKH picture change effects                    
  Yorick L. A. Schmerwitz: GMF and freeze-and-release deltaSCF, NEB S-IDPP initial path                    
  Kantharuban Sivalingam : CASSCF convergence/infrastructure, NEVPT2, NEVPT3, NEVPT4(SD), FIC-MRCI and CEPA variants
  Bernardo de Souza      : ESD, SOC TD-DFT                               
  Georgi L. Stoychev     : AutoAux, RI-MP2 NMR, DLPNO-MP2 response, X2C  
  Van Anh Tran           : RI-MP2 g-tensors                              
  Willem Van den Heuvel  : Paramagnetic NMR                              
  Zikuan Wang            : NOTCH, Electric field optimization            
  Frank Wennmohs         : Technical directorship and infrastructure     
  Hang Xu                : AUTO-CI-Response properties                   
                                                                         
[FACCTs GmbH]                                                            
  Markus Bursch, Nicolas Foglia, Miquel Garcia-Rates, Ingolf Harden, Hagen Neugebauer, Anastasios Papadopoulos, 
  Christoph Riplinger, Bernardo de Souza, Georgi L. Stoychev                                                    
                                                                 
  APM, various basis sets, CI-OPT, improved COSX, DLPNO-Multilevel,           
  DOCKER, DRACO, updates on ESD, Fragmentator, GOAT, IRC, LR-CPCM, L-BFGS, MBIS, meta-GGA TD-DFT gradient, ML-optimized integration grids, 
  MM, NACMEs, nearIR, NEB, NEB-TS, NL-DFT gradient (VV10), 2- and 3-layer-ONIOM, interface openCOSMO-RS, QMMM,   
  Crystal-QMMM, RESP, rigid body optimization, SF, symmetry and pop. for TD-DFT, various functionals, SOLVATOR                                   
                                                                         
[Other institutions]                                                     
  V. Asgeirsson          : NEB                                           
  Christoph Bannwarth    : sTDA-DFT, sTD-DFT, PBEh-3c, B97-3c, D3        
  Giovanni Bistoni       : ETS/NOCV, ADLD/ADEX, COVALED                  
  Martin Brehm           : Molecular dynamics                            
  Ronald Cardenas        : ETS/NOCV                                      
  Martina Colucci        : COVALED                                       
  Sebastian Ehlert       : rSCAN, r2SCAN, r2SCAN-3c, D4, dhf basis sets  
  Marvin Friede          : D4 for Fr, Ra, Ac-Lr                          
  Lars Goerigk           : TD-DFT with DH, B97 family of functionals     
  Stefan Grimme          : VdW corrections, initial TS optimization, DFT functionals, gCP, sTDA/sTD-DF 
  Waldemar Hujo          : DFT-NL                                        
  H. Jonsson             : NEB                                           
  Holger Kruse           : gCP                                           
  Marcel Mueller         : wB97X-3c, vDZP basis set                      
  Hagen Neugebauer       : wr2SCAN, Native XTB                           
  Gianluca Regni         : ADLD/ADEX                                     
  Tobias Risthaus        : pre 6.0 range-separated hybrid DFT and stability analysis
  Lukas Wittmann         : regularized MP2, r2SCAN double-hybrids, wr2SCAN        
                                                                         
We gratefully acknowledge several colleagues who have allowed us to      
interface, adapt or use parts of their codes:                            
  Ed Valeev, F. Pavosevic, A. Kumar             : LibInt (2-el integral package), F12 methods 
  Garnet Chan, S. Sharma, J. Yang, R. Olivares  : DMRG                   
  Ulf Ekstrom                                   : XCFun DFT Library      
  Mihaly Kallay                                 : mrcc  (arbitrary order and MRCC methods)
  Frank Weinhold                                : gennbo (NPA and NBO analysis)           
  Simon Mueller                                 : openCOSMO-RS                            
  Christopher J. Cramer and Donald G. Truhlar   : smd solvation model                     
  S Lehtola, MJT Oliveira, MAL Marques          : LibXC Library                           
  Liviu Ungur et al                             : ANISO software                          


 Your calculation uses the libint2 library for the computation of 2-el integrals
 For citations please refer to: http://libint.valeyev.net

 Your ORCA version has been built with support for libXC version: 7.0.0
 For citations please refer to: https://libxc.gitlab.io

 This ORCA versions uses:
   CBLAS   interface :  Fast vector & matrix operations
   LAPACKE interface :  Fast linear algebra routines
   Shared memory     :  Shared parallel matrices


  ***********************************
  * Starting time: Thu Jun  4 21:39:36 2026
  * Host name:     AHMET
  * Process ID:    28056
  * Working dir.:  D:\Makaleler\coumarin-logp-working-source\dft\molecules\CMR_GOLD_090
  ***********************************

NOTE: MaxCore=3000 MB was set to SCF,MP2,MDCI,CIPSI,MRCI,RASCI and CIS
      => If you want to overwrite this, your respective input block should be placed after the MaxCore statement


***************************************
The coordinates will be read from file: geometry/CMR_GOLD_090_opt.xyz
***************************************


Your calculation utilizes the atom-pairwise dispersion correction
with the Becke-Johnson damping scheme (D3BJ)


================================================================================

----- Orbital basis set information -----
Your calculation utilizes the basis: def2-SVP
   F. Weigend and R. Ahlrichs, Phys. Chem. Chem. Phys. 7, 3297 (2005).

----- AuxJ basis set information -----
Your calculation utilizes the auxiliary basis: def2/J
   H-Rn: F. Weigend, Phys. Chem. Chem. Phys. 8, 1057 (2006).
   Fr-Lr: K. Eichkorn, F. Weigend, O. Treutler, R. Ahlrichs; Theor. Chem. Acc. 97, 119 (1997).

================================================================================
                                        WARNINGS
                       Please study these warnings very carefully!
================================================================================


================================================================================
                                       INPUT FILE
================================================================================
NAME = input\CMR_GOLD_090_sp.inp
|  1> ! B3LYP D3BJ def2-SVP TightSCF RIJCOSX def2/J CPCM(Water)
|  2> 
|  3> %pal
|  4>   nprocs 8
|  5> end
|  6> 
|  7> %maxcore 3000
|  8> 
|  9> %scf
| 10>   MaxIter 500
| 11> end
| 12> 
| 13> %output
| 14>   Print[P_Mulliken] 1
| 15>   Print[P_Loewdin] 1
| 16> end
| 17> 
| 18> * xyzfile 0 1 geometry/CMR_GOLD_090_opt.xyz
| 19> 
| 20>                          ****END OF INPUT****
================================================================================

                       ****************************
                       * Single Point Calculation *
                       ****************************

---------------------------------
CARTESIAN COORDINATES (ANGSTROEM)
---------------------------------
  O      1.920140   -0.681913    3.003494
  C      2.540591   -0.334664    2.016917
  C      2.132468   -0.442257    0.624364
  C      2.979189    0.076881   -0.435760
  C      4.272522    0.659626   -0.029788
  C      4.616802    0.705083    1.326185
  C      5.838900    1.245397    1.745852
  C      6.722089    1.744618    0.791141
  C      6.394385    1.708912   -0.575718
  C      5.177454    1.169826   -0.978311
  O      3.778386    0.231396    2.285692
  O      2.677748    0.051609   -1.649752
  C      0.868590   -1.053283    0.305256
  C     -0.043555   -1.624344    1.348028
  N      0.497904   -1.113261   -0.961363
  C     -0.766473   -1.618078   -1.494821
  C     -1.947358   -0.727794   -1.166183
  C     -1.927906    0.631601   -1.478823
  C     -2.993889    1.487295   -1.179702
  C     -4.124352    0.956486   -0.541864
  O     -5.219787    1.678084   -0.200481
  C     -5.246949    3.065075   -0.495898
  C     -4.171335   -0.409498   -0.210818
  C     -3.094380   -1.245450   -0.518710
  O     -3.069604   -2.568425   -0.213735
  C     -4.169150   -3.145039    0.473081
  H      6.073571    1.264442    2.811878
  H      7.677266    2.167228    1.112891
  H      7.093695    2.103040   -1.316417
  H      4.893723    1.126980   -2.031289
  H     -0.421597   -0.814219    1.989227
  H      0.515640   -2.296187    2.010656
  H     -0.891453   -2.156158    0.906156
  H      1.184617   -0.689340   -1.611905
  H     -0.624925   -1.675737   -2.584004
  H     -0.950571   -2.639403   -1.139934
  H     -1.041054    1.044337   -1.968570
  H     -2.931075    2.542050   -1.443745
  H     -6.212329    3.441478   -0.133052
  H     -5.170069    3.248622   -1.581396
  H     -4.431127    3.603359    0.016511
  H     -5.063494   -0.782653    0.289757
  H     -4.325081   -2.666315    1.454514
  H     -5.096853   -3.065312   -0.118192
  H     -3.921314   -4.204099    0.619652

----------------------------
CARTESIAN COORDINATES (A.U.)
----------------------------
  NO LB      ZA    FRAG     MASS         X           Y           Z
   0 O     8.0000    0    15.999    3.628539   -1.288628    5.675781
   1 C     6.0000    0    12.011    4.801021   -0.632423    3.811421
   2 C     6.0000    0    12.011    4.029780   -0.835745    1.179878
   3 C     6.0000    0    12.011    5.629852    0.145285   -0.823467
   4 C     6.0000    0    12.011    8.073897    1.246512   -0.056291
   5 C     6.0000    0    12.011    8.724492    1.332414    2.506126
   6 C     6.0000    0    12.011   11.033922    2.353459    3.299182
   7 C     6.0000    0    12.011   12.702908    3.296849    1.495040
   8 C     6.0000    0    12.011   12.083637    3.229376   -1.087949
   9 C     6.0000    0    12.011    9.783970    2.210651   -1.848740
  10 O     8.0000    0    15.999    7.140115    0.437276    4.319333
  11 O     8.0000    0    15.999    5.060211    0.097527   -3.117579
  12 C     6.0000    0    12.011    1.641397   -1.990416    0.576850
  13 C     6.0000    0    12.011   -0.082307   -3.069564    2.547403
  14 N     7.0000    0    14.007    0.940902   -2.103758   -1.816714
  15 C     6.0000    0    12.011   -1.448424   -3.057725   -2.824802
  16 C     6.0000    0    12.011   -3.679973   -1.375332   -2.203767
  17 C     6.0000    0    12.011   -3.643215    1.193554   -2.794570
  18 C     6.0000    0    12.011   -5.657630    2.810581   -2.229314
  19 C     6.0000    0    12.011   -7.793895    1.807497   -1.023975
  20 O     8.0000    0    15.999   -9.863968    3.171119   -0.378854
  21 C     6.0000    0    12.011   -9.915297    5.792152   -0.937111
  22 C     6.0000    0    12.011   -7.882681   -0.773839   -0.398388
  23 C     6.0000    0    12.011   -5.847531   -2.353560   -0.980219
  24 O     8.0000    0    15.999   -5.800711   -4.853620   -0.403901
  25 C     6.0000    0    12.011   -7.878552   -5.943263    0.893994
  26 H     1.0000    0     1.008   11.477386    2.389448    5.313679
  27 H     1.0000    0     1.008   14.507930    4.095468    2.103059
  28 H     1.0000    0     1.008   13.405142    3.974170   -2.487668
  29 H     1.0000    0     1.008    9.247795    2.129683   -3.838580
  30 H     1.0000    0     1.008   -0.796703   -1.538650    3.759094
  31 H     1.0000    0     1.008    0.974418   -4.339164    3.799589
  32 H     1.0000    0     1.008   -1.684602   -4.074548    1.712387
  33 H     1.0000    0     1.008    2.238601   -1.302663   -3.046058
  34 H     1.0000    0     1.008   -1.180937   -3.166684   -4.883061
  35 H     1.0000    0     1.008   -1.796320   -4.987748   -2.154164
  36 H     1.0000    0     1.008   -1.967307    1.973512   -3.720058
  37 H     1.0000    0     1.008   -5.538929    4.803778   -2.728282
  38 H     1.0000    0     1.008  -11.739600    6.503450   -0.251431
  39 H     1.0000    0     1.008   -9.770015    6.139006   -2.988406
  40 H     1.0000    0     1.008   -8.373617    6.809362    0.031201
  41 H     1.0000    0     1.008   -9.568617   -1.478999    0.547561
  42 H     1.0000    0     1.008   -8.173218   -5.038605    2.748633
  43 H     1.0000    0     1.008   -9.631657   -5.792600   -0.223351
  44 H     1.0000    0     1.008   -7.410209   -7.944595    1.170973

--------------------------------
INTERNAL COORDINATES (ANGSTROEM)
--------------------------------
 O      0   0   0     0.000000000000     0.00000000     0.00000000
 C      1   0   0     1.216090202101     0.00000000     0.00000000
 C      2   1   0     1.455109613458   127.74722320     0.00000000
 C      3   2   1     1.452688907431   120.56327576   177.42026475
 C      4   3   2     1.475505169857   116.82406793     2.25330385
 C      5   4   3     1.399734532037   119.66701708   359.16108910
 C      6   5   4     1.400564913163   121.15941091   179.69193059
 C      7   6   5     1.393096596867   119.08383311     0.00000000
 C      8   7   6     1.406046719433   120.62093548     0.03207030
 C      9   8   7     1.390545602717   119.68728940     0.00000000
 O      6   5   4     1.359402707093   121.38253686   359.48790123
 O      4   3   2     1.251112261443   124.08773265   181.97377895
 C      3   2   1     1.439642051493   119.32380992   358.28513617
 C     13   3   2     1.498496762770   122.81229343   358.31461701
 N     13   3   2     1.321109465374   118.56237278   178.34212966
 C     15  13   3     1.462212852962   127.45073623   183.71190275
 C     16  15  13     1.514958203854   113.07854941    69.62226224
 C     17  16  15     1.395018984437   120.87527014    53.66138300
 C     18  17  16     1.399286955005   122.50516762   180.61218875
 C     19  18  17     1.402334427199   118.67692822   359.97146091
 O     20  19  18     1.355442626065   124.37028102   180.05315314
 C     21  20  19     1.418362564147   118.92171341   359.89255489
 C     20  19  18     1.406311917172   120.11023900     0.20739841
 C     23  20  19     1.397656973096   120.22243635   359.81982470
 O     24  23  20     1.357897626949   123.18271676   179.24683762
 C     25  24  23     1.418873690737   119.37432269   358.76435517
 H      7   6   5     1.091716189532   119.13607664   179.98451408
 H      8   7   6     1.092925077390   119.39887335   180.01261582
 H      9   8   7     1.092248703282   120.05668587   179.99074651
 H     10   9   8     1.091376117632   121.47137394   180.03238318
 H     14  13   3     1.100160901536   109.51890696    66.08623707
 H     14  13   3     1.096881476666   110.08894447   310.02525608
 H     14  13   3     1.094078758630   112.08204596   187.30049884
 H     15  13   3     1.036574794007   113.40644197   359.56267147
 H     16  15  13     1.099854922303   105.55144822   190.21367253
 H     16  15  13     1.096786367143   110.40068800   305.56862850
 H     18  17  16     1.093942291170   118.63931057     0.06197931
 H     19  18  17     1.089114566360   119.76654409   179.97397751
 H     22  21  20     1.097858998714   106.45549934   180.21292049
 H     22  21  20     1.103588624170   111.47974123    61.18455183
 H     22  21  20     1.103575264321   111.47596563   299.24200007
 H     23  20  19     1.088929276780   117.93295005   179.59886252
 H     26  25  24     1.103042119829   111.33779134   299.85512573
 H     26  25  24     1.102993353669   111.28007492    61.76256013
 H     26  25  24     1.097502997938   106.36782586   180.76995898

---------------------------
INTERNAL COORDINATES (A.U.)
---------------------------
 O      0   0   0     0.000000000000     0.00000000     0.00000000
 C      1   0   0     2.298077436115     0.00000000     0.00000000
 C      2   1   0     2.749758664271   127.74722320     0.00000000
 C      3   2   1     2.745184192830   120.56327576   177.42026475
 C      4   3   2     2.788300680214   116.82406793     2.25330385
 C      5   4   3     2.645114925742   119.66701708   359.16108910
 C      6   5   4     2.646684118658   121.15941091   179.69193059
 C      7   6   5     2.632571046177   119.08383311     0.00000000
 C      8   7   6     2.657043231228   120.62093548     0.03207030
 C      9   8   7     2.627750365864   119.68728940     0.00000000
 O      6   5   4     2.568898822116   121.38253686   359.48790123
 O      4   3   2     2.364259536919   124.08773265   181.97377895
 C      3   2   1     2.720529208199   119.32380992   358.28513617
 C     13   3   2     2.831748494202   122.81229343   358.31461701
 N     13   3   2     2.496535082488   118.56237278   178.34212966
 C     15  13   3     2.763181841598   127.45073623   183.71190275
 C     16  15  13     2.862856109622   113.07854941    69.62226224
 C     17  16  15     2.636203832206   120.87527014    53.66138300
 C     18  17  16     2.644269127728   122.50516762   180.61218875
 C     19  18  17     2.650028015575   118.67692822   359.97146091
 O     20  19  18     2.561415353506   124.37028102   180.05315314
 C     21  20  19     2.680316804843   118.92171341   359.89255489
 C     20  19  18     2.657544382325   120.11023900     0.20739841
 C     23  20  19     2.641188908317   120.22243635   359.81982470
 O     24  23  20     2.566054632836   123.18271676   179.24683762
 C     25  24  23     2.681282694120   119.37432269   358.76435517
 H      7   6   5     2.063044614184   119.13607664   179.98451408
 H      8   7   6     2.065329081162   119.39887335   180.01261582
 H      9   8   7     2.064050919334   120.05668587   179.99074651
 H     10   9   8     2.062401971426   121.47137394   180.03238318
 H     14  13   3     2.079002807151   109.51890696    66.08623707
 H     14  13   3     2.072805592270   110.08894447   310.02525608
 H     14  13   3     2.067509222750   112.08204596   187.30049884
 H     15  13   3     1.958842478000   113.40644197   359.56267147
 H     16  15  13     2.078424590199   105.55144822   190.21367253
 H     16  15  13     2.072625861320   110.40068800   305.56862850
 H     18  17  16     2.067251336626   118.63931057     0.06197931
 H     19  18  17     2.058128258885   119.76654409   179.97397751
 H     22  21  20     2.074652841230   106.45549934   180.21292049
 H     22  21  20     2.085480264193   111.47974123    61.18455183
 H     22  21  20     2.085455017737   111.47596563   299.24200007
 H     23  20  19     2.057778112323   117.93295005   179.59886252
 H     26  25  24     2.084447520656   111.33779134   299.85512573
 H     26  25  24     2.084355365970   111.28007492    61.76256013
 H     26  25  24     2.073980097260   106.36782586   180.76995898

---------------------
BASIS SET INFORMATION
---------------------
There are 4 groups of distinct atoms

 Group   1 Type O   : 7s4p1d contracted to 3s2p1d pattern {511/31/1}
 Group   2 Type C   : 7s4p1d contracted to 3s2p1d pattern {511/31/1}
 Group   3 Type N   : 7s4p1d contracted to 3s2p1d pattern {511/31/1}
 Group   4 Type H   : 4s1p contracted to 2s1p pattern {31/1}

Atom   0O    basis set group =>   1
Atom   1C    basis set group =>   2
Atom   2C    basis set group =>   2
Atom   3C    basis set group =>   2
Atom   4C    basis set group =>   2
Atom   5C    basis set group =>   2
Atom   6C    basis set group =>   2
Atom   7C    basis set group =>   2
Atom   8C    basis set group =>   2
Atom   9C    basis set group =>   2
Atom  10O    basis set group =>   1
Atom  11O    basis set group =>   1
Atom  12C    basis set group =>   2
Atom  13C    basis set group =>   2
Atom  14N    basis set group =>   3
Atom  15C    basis set group =>   2
Atom  16C    basis set group =>   2
Atom  17C    basis set group =>   2
Atom  18C    basis set group =>   2
Atom  19C    basis set group =>   2
Atom  20O    basis set group =>   1
Atom  21C    basis set group =>   2
Atom  22C    basis set group =>   2
Atom  23C    basis set group =>   2
Atom  24O    basis set group =>   1
Atom  25C    basis set group =>   2
Atom  26H    basis set group =>   4
Atom  27H    basis set group =>   4
Atom  28H    basis set group =>   4
Atom  29H    basis set group =>   4
Atom  30H    basis set group =>   4
Atom  31H    basis set group =>   4
Atom  32H    basis set group =>   4
Atom  33H    basis set group =>   4
Atom  34H    basis set group =>   4
Atom  35H    basis set group =>   4
Atom  36H    basis set group =>   4
Atom  37H    basis set group =>   4
Atom  38H    basis set group =>   4
Atom  39H    basis set group =>   4
Atom  40H    basis set group =>   4
Atom  41H    basis set group =>   4
Atom  42H    basis set group =>   4
Atom  43H    basis set group =>   4
Atom  44H    basis set group =>   4
---------------------------------
AUXILIARY/J BASIS SET INFORMATION
---------------------------------
There are 4 groups of distinct atoms

 Group   1 Type O   : 12s5p4d2f1g contracted to 6s4p3d1f1g pattern {711111/2111/211/2/1}
 Group   2 Type C   : 12s5p4d2f1g contracted to 6s4p3d1f1g pattern {711111/2111/211/2/1}
 Group   3 Type N   : 12s5p4d2f1g contracted to 6s4p3d1f1g pattern {711111/2111/211/2/1}
 Group   4 Type H   : 5s2p1d contracted to 3s1p1d pattern {311/2/1}

Atom   0O    basis set group =>   1
Atom   1C    basis set group =>   2
Atom   2C    basis set group =>   2
Atom   3C    basis set group =>   2
Atom   4C    basis set group =>   2
Atom   5C    basis set group =>   2
Atom   6C    basis set group =>   2
Atom   7C    basis set group =>   2
Atom   8C    basis set group =>   2
Atom   9C    basis set group =>   2
Atom  10O    basis set group =>   1
Atom  11O    basis set group =>   1
Atom  12C    basis set group =>   2
Atom  13C    basis set group =>   2
Atom  14N    basis set group =>   3
Atom  15C    basis set group =>   2
Atom  16C    basis set group =>   2
Atom  17C    basis set group =>   2
Atom  18C    basis set group =>   2
Atom  19C    basis set group =>   2
Atom  20O    basis set group =>   1
Atom  21C    basis set group =>   2
Atom  22C    basis set group =>   2
Atom  23C    basis set group =>   2
Atom  24O    basis set group =>   1
Atom  25C    basis set group =>   2
Atom  26H    basis set group =>   4
Atom  27H    basis set group =>   4
Atom  28H    basis set group =>   4
Atom  29H    basis set group =>   4
Atom  30H    basis set group =>   4
Atom  31H    basis set group =>   4
Atom  32H    basis set group =>   4
Atom  33H    basis set group =>   4
Atom  34H    basis set group =>   4
Atom  35H    basis set group =>   4
Atom  36H    basis set group =>   4
Atom  37H    basis set group =>   4
Atom  38H    basis set group =>   4
Atom  39H    basis set group =>   4
Atom  40H    basis set group =>   4
Atom  41H    basis set group =>   4
Atom  42H    basis set group =>   4
Atom  43H    basis set group =>   4
Atom  44H    basis set group =>   4


           ************************************************************
           *        Program running with 8 parallel MPI-processes     *
           *              working on a common directory               *
           ************************************************************
------------------------------------------------------------------------------
                             ORCA STARTUP CALCULATIONS
                           -- RI-GTO INTEGRALS CHOSEN --
------------------------------------------------------------------------------
------------------------------------------------------------------------------
                   ___                                                        
                  /   \      - P O W E R E D   B Y -                         
                 /     \                                                     
                 |  |  |   _    _      __       _____    __    __             
                 |  |  |  | |  | |    /  \     |  _  \  |  |  /  |          
                  \  \/   | |  | |   /    \    | | | |  |  | /  /          
                 / \  \   | |__| |  /  /\  \   | |_| |  |  |/  /          
                |  |  |   |  __  | /  /__\  \  |    /   |      \           
                |  |  |   | |  | | |   __   |  |    \   |  |\   \          
                \     /   | |  | | |  |  |  |  | |\  \  |  | \   \       
                 \___/    |_|  |_| |__|  |__|  |_| \__\ |__|  \__/        
                                                                              
                      - O R C A' S   B I G   F R I E N D -                    
                                      &                                       
                       - I N T E G R A L  F E E D E R -                       
                                                                              
 v1 FN, 2020, v2 2021, v3 2022-2024                                           
------------------------------------------------------------------------------


----------------------
SHARK INTEGRAL PACKAGE
----------------------

Number of atoms                             ...     45
Number of basis functions                   ...    459
Number of shells                            ...    213
Maximum angular momentum                    ...      2
Integral batch strategy                     ... SHARK/LIBINT Hybrid
RI-J (if used) integral strategy            ... SPLIT-RIJ (Revised 2003 algorithm where possible)
Printlevel                                  ...      1
Contraction scheme used                     ... SEGMENTED contraction
Prescreening option                         ... SCHWARTZ
   Thresh                                   ... 2.500e-11
   Tcut                                     ... 2.500e-12
   Tpresel                                  ... 2.500e-12 
Coulomb Range Separation                    ... NOT USED
Exchange Range Separation                   ... NOT USED
Multipole approximations                    ... NOT USED
Finite Nucleus Model                        ... NOT USED
CABS basis                                  ... NOT available
Auxiliary Coulomb fitting basis             ... AVAILABLE
   # of basis functions in Aux-J            ...   1483
   # of shells in Aux-J                     ...    485
   Maximum angular momentum in Aux-J        ...      4
Auxiliary J/K fitting basis                 ... NOT available
Auxiliary Correlation fitting basis         ... NOT available
Auxiliary 'external' fitting basis          ... NOT available

Checking pre-screening integrals            ... done (  0.0 sec) Dimension = 213
   => SHARK Basis and OBASIS are compatible. Storing Pre-screening
Shell pair information
Shell pair cut-off parameter TPreSel        ...   2.5e-12
Total number of shell pairs                 ...     22791
Shell pairs after pre-screening             ...     14371
Total number of primitive shell pairs       ...     83423
Primitive shell pairs kept                  ...     33138
          la=0 lb=0:   4401 shell pairs
          la=1 lb=0:   5344 shell pairs
          la=1 lb=1:   1667 shell pairs
          la=2 lb=0:   1730 shell pairs
          la=2 lb=1:   1057 shell pairs
          la=2 lb=2:    172 shell pairs

Checking whether 4 symmetric matrices of dimension 459 fit in memory
:Max Core in MB      =   3000.00
 MB in use           =     17.40
 MB left             =   2982.60
 MB needed           =      3.22
 Data fit in memory  = YES
Calculating RI/J V-Matrix + Cholesky decomp.... done (  0.1 sec)
Calculating Nuclear repulsion               ... done (  0.0 sec) ENN=   2226.056123289157 Eh

Diagonalization of the overlap matrix:
Smallest eigenvalue                        ... 2.189e-04
Time for diagonalization                   ...    0.012 sec
Threshold for overlap eigenvalues          ... 1.000e-07
Number of eigenvalues below threshold      ... 0
Time for construction of square roots      ...    0.010 sec
Total time needed                          ...    0.023 sec

-------------------
DFT GRID GENERATION
-------------------

General Integration Accuracy     IntAcc      ... 4.388
Radial Grid Type                 RadialGrid  ... OptM3 with GC (2021)
Angular Grid (max. ang.)         AngularGrid ... 4 (Lebedev-302)
Angular grid pruning method      GridPruning ... 4 (adaptive)
Weight generation scheme         WeightScheme... mBecke (2022)
Basis function cutoff            BFCut       ... 1.0000e-11
Integration weight cutoff        WCut        ... 1.0000e-14
Partially contracted basis set               ... off
Rotationally invariant grid construction     ... off
Angular grids for H and He will be reduced by one unit

Total number of grid points                  ...   216055
Total number of batches                      ...     3399
Average number of points per batch           ...       63
Average number of grid points per atom       ...     4801

--------------------
COSX GRID GENERATION
--------------------

GRIDX 1
-------
General Integration Accuracy     IntAcc      ... 3.816
Radial Grid Type                 RadialGrid  ... OptM3 with GC (2021)
Angular Grid (max. ang.)         AngularGrid ... 1 (Lebedev-50)
Angular grid pruning method      GridPruning ... 4 (adaptive)
Weight generation scheme         WeightScheme... mBecke (2022)
Basis function cutoff            BFCut       ... 1.0000e-11
Integration weight cutoff        WCut        ... 1.0000e-14
Partially contracted basis set               ... on
Rotationally invariant grid construction     ... off
Angular grids for H and He will be reduced by one unit

Total number of grid points                  ...    27440
Total number of batches                      ...      241
Average number of points per batch           ...      113
Average number of grid points per atom       ...      610
UseSFitting                                  ... on

GRIDX 2
-------
General Integration Accuracy     IntAcc      ... 4.020
Radial Grid Type                 RadialGrid  ... OptM3 with GC (2021)
Angular Grid (max. ang.)         AngularGrid ... 2 (Lebedev-110)
Angular grid pruning method      GridPruning ... 4 (adaptive)
Weight generation scheme         WeightScheme... mBecke (2022)
Basis function cutoff            BFCut       ... 1.0000e-11
Integration weight cutoff        WCut        ... 1.0000e-14
Partially contracted basis set               ... on
Rotationally invariant grid construction     ... off
Angular grids for H and He will be reduced by one unit

Total number of grid points                  ...    59743
Total number of batches                      ...      489
Average number of points per batch           ...      122
Average number of grid points per atom       ...     1328
UseSFitting                                  ... on

GRIDX 3
-------
General Integration Accuracy     IntAcc      ... 4.338
Radial Grid Type                 RadialGrid  ... OptM3 with GC (2021)
Angular Grid (max. ang.)         AngularGrid ... 3 (Lebedev-194)
Angular grid pruning method      GridPruning ... 4 (adaptive)
Weight generation scheme         WeightScheme... mBecke (2022)
Basis function cutoff            BFCut       ... 1.0000e-11
Integration weight cutoff        WCut        ... 1.0000e-14
Partially contracted basis set               ... on
Rotationally invariant grid construction     ... off
Angular grids for H and He will be reduced by one unit

Total number of grid points                  ...   130718
Total number of batches                      ...     1042
Average number of points per batch           ...      125
Average number of grid points per atom       ...     2905
UseSFitting                                  ... on
Grids setup in   1.5 sec
Initializing property integral containers    ... done (  0.1 sec)

SHARK setup successfully completed in   1.8 seconds

Maximum memory used throughout the entire STARTUP-calculation: 56.8 MB


           ************************************************************
           *        Program running with 8 parallel MPI-processes     *
           *              working on a common directory               *
           ************************************************************
-------------------------------------------------------------------------------
                                 ORCA GUESS
                   Start orbitals & Density for SCF / CASSCF
-------------------------------------------------------------------------------

------------
SCF SETTINGS
------------
Hamiltonian:
 Density Functional     Method          .... DFT(GTOs)
 Exchange Functional    Exchange        .... B88
   X-Alpha parameter    XAlpha          ....  0.666667
   Becke's b parameter  XBeta           ....  0.004200
 Correlation Functional Correlation     .... LYP
 LDA part of GGA corr.  LDAOpt          .... VWN-5
 Gradients option       PostSCFGGA      .... off
 Hybrid DFT is turned on
   Fraction HF Exchange ScalHFX         ....  0.200000
   Scaling of DF-GGA-X  ScalDFX         ....  0.720000
   Scaling of DF-GGA-C  ScalDFC         ....  0.810000
   Scaling of DF-LDA-C  ScalLDAC        ....  1.000000
   Perturbative correction              ....  0.000000
   NL short-range parameter             ....  4.800000
 RI-approximation to the Coulomb term is turned on
   Number of AuxJ basis functions       .... 1483
   RIJ-COSX (HFX calculated with COS-X)).... on


General Settings:
 Integral files         IntName         .... input\CMR_GOLD_090_sp
 Hartree-Fock type      HFTyp           .... RHF
 Total Charge           Charge          ....    0
 Multiplicity           Mult            ....    1
 Number of Electrons    NEL             ....  186
 Basis Dimension        Dim             ....  459
 Nuclear Repulsion      ENuc            ....   2226.0561232892 Eh

Convergence Acceleration:
 AO-DIIS                CNVDIIS         .... on
   Start iteration      DIISMaxIt       ....    12
   Startup error        DIISStart       ....  0.200000
   # of expansion vecs  DIISMaxEq       ....     5
   Bias factor          DIISBfac        ....   1.050
   Max. coefficient     DIISMaxC        ....  10.000
 MO-DIIS                CNVKDIIS        .... off
 Trust-Rad. Augm. Hess. CNVTRAH         .... auto
   Auto Start mean grad. ratio tolernc. ....  1.125000
   Auto Start start iteration           ....    50
   Auto Start num. interpolation iter.  ....    10
   Max. Number of Micro iterations      ....    24
   Max. Number of Macro iterations      .... Maxiter - #DIIS iter
   Number of Davidson start vectors     ....     2
   Converg. threshold    (grad. norm)   ....   1.000e-05
   Grad. Scal. Fac. for Micro threshold ....   0.100
   Minimum threshold for Micro iter.    ....   1.000e-02
   NR start threshold (gradient norm)   ....   1.000e-04
   Initial trust radius                 ....   0.400
   Minimum AH scaling param. (alpha)    ....   1.000
   Maximum AH scaling param. (alpha)    .... 1000.000
   Quad. conv. algorithm                .... NR
   White noise on init. David. guess    .... on
   Maximum white noise                  ....   0.010
   Pseudo random numbers                .... off
   Inactive MOs                         .... canonical
   Orbital update algorithm             .... Taylor
   Preconditioner                       .... Diag
   Full preconditioner red. dimension   ....   250
 SOSCF                 CNVSOSCF           .... on
   Start iteration     SOSCFMaxIt         ....   150
   Startup grad/error  SOSCFStart         ....  0.003300
   Hessian update      SOSCFHessUp        .... L-BFGS
   Autom. constraints  SOSCFAutoConstrain .... off
 Level Shifting         CNVShift        .... on
   Level shift para.    LevelShift      ....    0.2500
   Turn off err/grad.   ShiftErr        ....    0.0010
 Zerner damping         CNVZerner       .... off
 Static damping         CNVDamp         .... on
   Fraction old density DampFac         ....    0.7000
   Max. Damping (<1)    DampMax         ....    0.9800
   Min. Damping (>=0)   DampMin         ....    0.0000
   Turn off err/grad.   DampErr         ....    0.1000

SCF Procedure:
 Maximum # iterations   MaxIter         ....   500
 SCF integral mode      SCFMode         .... Direct
   Integral package                     .... SHARK and LIBINT hybrid scheme
 Reset frequency        DirectResetFreq ....    20
 Integral Threshold     Thresh          ....  2.500e-11 Eh
 Primitive CutOff       TCut            ....  2.500e-12 Eh

Convergence Tolerance:
 Convergence Check Mode ConvCheckMode   .... Total+1el-Energy
 Convergence forced     ConvForced      .... 0
 Energy Change          TolE            ....  1.000e-08 Eh
 1-El. energy change                    ....  1.000e-05 Eh
 Orbital Gradient       TolG            ....  1.000e-05
 Orbital Rotation angle TolX            ....  1.000e-05
 DIIS Error             TolErr          ....  5.000e-07

------------------------------
INITIAL GUESS: MODEL POTENTIAL
------------------------------
Loading Hartree-Fock densities                     ... done
Calculating cut-offs                               ... done
Initializing the effective Hamiltonian             ... done
Setting up the integral package (SHARK)            ... done
Starting the Coulomb interaction                   ... done (   0.1 sec)
Making the grid                                    ... done (   0.3 sec)
Mapping shells                                     ... done
Starting the XC term evaluation                    ... done (   0.1 sec)
  promolecular density results
     # of electrons  =    185.999945604
     EX              =   -156.099028512
     EC              =     -6.393383844
     EX+EC           =   -162.492412356
Transforming the Hamiltonian                       ... done (   0.0 sec)
Diagonalizing the Hamiltonian                      ... done (   0.0 sec)
Back transforming the eigenvectors                 ... done (   0.0 sec)
Now organizing SCF variables                       ... done
                      ------------------
                      INITIAL GUESS DONE (   0.6 sec)
                      ------------------
             **** ENERGY FILE WAS UPDATED (input\CMR_GOLD_090_sp.en.tmp) ****
Finished Guess after   0.7 sec
Maximum memory used throughout the entire GUESS-calculation: 23.4 MB


           ************************************************************
           *        Program running with 8 parallel MPI-processes     *
           *              working on a common directory               *
           ************************************************************

-------------------------------------------------------------------------------------------
                                      ORCA LEAN-SCF
                              memory conserving SCF solver
-------------------------------------------------------------------------------------------

--------------------
CPCM SOLVATION MODEL
--------------------
CPCM parameters:
  Epsilon                                         ...      80.1510
  Refrac                                          ...       1.3328
  Rsolv                                           ...       1.3000
  Surface type                                    ... GAUSSIAN VDW
  Discretization scheme                           ... Constant charge density
    Threshold for H atoms                         ...       5.0000 (charges/Ang^2)
    Threshold for non-H atoms                     ...       5.0000 (charges/Ang^2)
  Epsilon function type                           ...         CPCM
Solvent:                                          ... WATER
Radii:
  Scheme                                          ... Element-dependent radii
  Radius for O  used is    3.4469 Bohr (=   1.8240 Ang.)
  Radius for C  used is    3.8550 Bohr (=   2.0400 Ang.)
  Radius for N  used is    3.5149 Bohr (=   1.8600 Ang.)
  Radius for H  used is    2.4944 Bohr (=   1.3200 Ang.)
Calculating surface                               ...        done! (  0.0s)
Cavity surface points                             ...         3871
Cavity Volume                                     ...    2752.6168
Cavity Surface-area                               ...    1386.4244
Calculating surface distance matrix               ...        done! (  0.1s)
Performing Cholesky decomposition & store         ...        done! (  0.3s)
Overall time for CPCM initialization              ...                 0.3s

----------------------------------------D-I-I-S--------------------------------------------
Iteration    Energy (Eh)           Delta-E    RMSDP     MaxDP     DIISErr   Damp  Time(sec)
-------------------------------------------------------------------------------------------
               ***  Starting incremental Fock matrix formation  ***
    1    -1202.3631793539002501     0.00e+00  6.69e-03  9.93e-02  2.76e-01  0.700   2.7
    2    -1202.6176502773664652    -2.54e-01  4.40e-03  5.81e-02  1.06e-01  0.700   1.6
                               ***Turning on AO-DIIS***
    3    -1202.7179129178862240    -1.00e-01  1.90e-03  2.20e-02  3.88e-02  0.700   1.6
    4    -1202.7801536684191888    -6.22e-02  3.51e-03  3.11e-02  2.02e-02  0.000   1.5
    5    -1202.9155914276830117    -1.35e-01  5.45e-04  6.69e-03  6.90e-03  0.000   1.5
                              *** Initializing SOSCF ***
---------------------------------------S-O-S-C-F--------------------------------------
Iteration    Energy (Eh)           Delta-E    RMSDP     MaxDP     MaxGrad    Time(sec)
--------------------------------------------------------------------------------------
    6    -1202.9164210102053403    -8.30e-04  1.72e-04  1.90e-03  1.59e-03     1.5
               *** Restarting incremental Fock matrix formation ***
    7    -1202.9163866359440362     3.44e-05  1.38e-04  1.60e-03  2.27e-04     2.8
    8    -1202.9163825538903438     4.08e-06  5.83e-05  1.44e-03  3.72e-04     2.0
    9    -1202.9163959695320045    -1.34e-05  2.94e-05  4.13e-04  6.11e-05     1.9
   10    -1202.9163957028886216     2.67e-07  1.52e-05  2.75e-04  7.98e-05     1.8
   11    -1202.9163964735776062    -7.71e-07  7.45e-06  1.18e-04  2.53e-05     1.6
   12    -1202.9163964690133071     4.56e-09  4.49e-06  7.33e-05  2.92e-05     1.5
                 **** Energy Check signals convergence ****

               *****************************************************
               *                     SUCCESS                       *
               *           SCF CONVERGED AFTER  12 CYCLES          *
               *****************************************************

Recomputing exchange energy using gridx3       ... done (    5.096 sec)
Old exchange energy                            :    -31.598512822 Eh
New exchange energy                            :    -31.598516463 Eh
Exchange energy change after final integration :     -0.000003640 Eh
Total energy after final integration           :  -1202.916400153 Eh
             **** ENERGY FILE WAS UPDATED (input\CMR_GOLD_090_sp.en.tmp) ****

----------------
TOTAL SCF ENERGY
----------------

Total Energy       :      -1202.91640015336543 Eh          -32733.01936 eV

Components:
Nuclear Repulsion  :       2226.05612328915686 Eh           60574.06664 eV
Electronic Energy  :      -3428.94823857501387 Eh          -93306.42518 eV
One Electron Energy:      -6062.81782077878415 Eh         -164977.66021 eV
Two Electron Energy:       2633.86958220377028 Eh           71671.23503 eV
CPCM Dielectric    :         -0.02428122705866 Eh              -0.66073 eV

Virial components:
Potential Energy   :      -2394.42366953202099 Eh          -65155.58049 eV
Kinetic Energy     :       1191.50726937865556 Eh           32422.56113 eV
Virial Ratio       :          2.00957537655701

DFT components:
N(Alpha)           :       93.000092790557 electrons
N(Beta)            :       93.000092790557 electrons
N(Total)           :      186.000185581114 electrons
E(X)               :     -125.618169193873 Eh       
E(C)               :       -7.518066364330 Eh       
E(XC)              :     -133.136235558203 Eh       

CPCM Solvation Model Properties:
Surface-charge          :         -0.02772976172422
Corrected charge        :         -0.00000000000000
Outlying charge corr.   :          0.00003739370700 Eh               0.00102 eV
Free-energy (cav+disp)  :  This term is not implemented in the current solvation scheme

---------------
SCF CONVERGENCE
---------------

  Last Energy change         ...   -4.5643e-09  Tolerance :   1.0000e-08
  Last MAX-Density change    ...    7.3278e-05  Tolerance :   1.0000e-07
  Last RMS-Density change    ...    4.4931e-06  Tolerance :   5.0000e-09
  Last DIIS Error            ...    1.5870e-03  Tolerance :   5.0000e-07
  Last Orbital Gradient      ...    2.9236e-05  Tolerance :   1.0000e-05
  Last Orbital Rotation      ...    4.0755e-05  Tolerance :   1.0000e-05


----------------
ORBITAL ENERGIES
----------------

  NO   OCC          E(Eh)            E(eV) 
   0   2.0000     -19.190689      -522.2052 
   1   2.0000     -19.168524      -521.6021 
   2   2.0000     -19.163029      -521.4525 
   3   2.0000     -19.115687      -520.1643 
   4   2.0000     -19.111947      -520.0625 
   5   2.0000     -14.367909      -390.9707 
   6   2.0000     -10.318435      -280.7789 
   7   2.0000     -10.273275      -279.5500 
   8   2.0000     -10.271197      -279.4935 
   9   2.0000     -10.263558      -279.2856 
  10   2.0000     -10.252464      -278.9837 
  11   2.0000     -10.250315      -278.9253 
  12   2.0000     -10.235506      -278.5223 
  13   2.0000     -10.233477      -278.4671 
  14   2.0000     -10.228778      -278.3392 
  15   2.0000     -10.201508      -277.5971 
  16   2.0000     -10.198924      -277.5268 
  17   2.0000     -10.198230      -277.5080 
  18   2.0000     -10.196298      -277.4554 
  19   2.0000     -10.194331      -277.4018 
  20   2.0000     -10.192555      -277.3535 
  21   2.0000     -10.192456      -277.3508 
  22   2.0000     -10.189027      -277.2575 
  23   2.0000     -10.187442      -277.2144 
  24   2.0000     -10.182343      -277.0756 
  25   2.0000     -10.181205      -277.0447 
  26   2.0000      -1.104089       -30.0438 
  27   2.0000      -1.060912       -28.8689 
  28   2.0000      -1.056244       -28.7418 
  29   2.0000      -1.021674       -27.8012 
  30   2.0000      -1.012989       -27.5648 
  31   2.0000      -0.958098       -26.0712 
  32   2.0000      -0.856792       -23.3145 
  33   2.0000      -0.847847       -23.0711 
  34   2.0000      -0.804698       -21.8969 
  35   2.0000      -0.773608       -21.0509 
  36   2.0000      -0.756617       -20.5886 
  37   2.0000      -0.752568       -20.4784 
  38   2.0000      -0.746435       -20.3115 
  39   2.0000      -0.730124       -19.8677 
  40   2.0000      -0.714356       -19.4386 
  41   2.0000      -0.691706       -18.8223 
  42   2.0000      -0.671735       -18.2788 
  43   2.0000      -0.651836       -17.7374 
  44   2.0000      -0.628876       -17.1126 
  45   2.0000      -0.608769       -16.5654 
  46   2.0000      -0.595229       -16.1970 
  47   2.0000      -0.583228       -15.8704 
  48   2.0000      -0.572848       -15.5880 
  49   2.0000      -0.559182       -15.2161 
  50   2.0000      -0.554130       -15.0786 
  51   2.0000      -0.539136       -14.6706 
  52   2.0000      -0.513745       -13.9797 
  53   2.0000      -0.499583       -13.5943 
  54   2.0000      -0.495395       -13.4804 
  55   2.0000      -0.488433       -13.2909 
  56   2.0000      -0.481601       -13.1050 
  57   2.0000      -0.477076       -12.9819 
  58   2.0000      -0.471120       -12.8198 
  59   2.0000      -0.464349       -12.6356 
  60   2.0000      -0.462787       -12.5931 
  61   2.0000      -0.455679       -12.3996 
  62   2.0000      -0.444531       -12.0963 
  63   2.0000      -0.442363       -12.0373 
  64   2.0000      -0.437770       -11.9123 
  65   2.0000      -0.436320       -11.8729 
  66   2.0000      -0.432660       -11.7733 
  67   2.0000      -0.424363       -11.5475 
  68   2.0000      -0.416658       -11.3378 
  69   2.0000      -0.406276       -11.0553 
  70   2.0000      -0.405716       -11.0401 
  71   2.0000      -0.398913       -10.8550 
  72   2.0000      -0.390538       -10.6271 
  73   2.0000      -0.386741       -10.5238 
  74   2.0000      -0.384407       -10.4602 
  75   2.0000      -0.382104       -10.3976 
  76   2.0000      -0.379268       -10.3204 
  77   2.0000      -0.373314       -10.1584 
  78   2.0000      -0.364987        -9.9318 
  79   2.0000      -0.346260        -9.4222 
  80   2.0000      -0.344862        -9.3842 
  81   2.0000      -0.343495        -9.3470 
  82   2.0000      -0.336716        -9.1625 
  83   2.0000      -0.328479        -8.9384 
  84   2.0000      -0.322684        -8.7807 
  85   2.0000      -0.303575        -8.2607 
  86   2.0000      -0.281740        -7.6665 
  87   2.0000      -0.267232        -7.2717 
  88   2.0000      -0.259625        -7.0648 
  89   2.0000      -0.245402        -6.6777 
  90   2.0000      -0.238960        -6.5024 
  91   2.0000      -0.233845        -6.3632 
  92   2.0000      -0.216969        -5.9040 
  93   0.0000      -0.064268        -1.7488 
  94   0.0000      -0.025854        -0.7035 
  95   0.0000      -0.010108        -0.2750 
  96   0.0000      -0.005366        -0.1460 
  97   0.0000       0.008547         0.2326 
  98   0.0000       0.018247         0.4965 
  99   0.0000       0.071635         1.9493 
 100   0.0000       0.075910         2.0656 
 101   0.0000       0.077626         2.1123 
 102   0.0000       0.083026         2.2593 
 103   0.0000       0.090177         2.4539 
*Only the first 10 virtual orbitals were printed.

                    ********************************
                    * MULLIKEN POPULATION ANALYSIS *
                    ********************************

-----------------------
MULLIKEN ATOMIC CHARGES
-----------------------
   0 O :   -0.261591
   1 C :    0.204131
   2 C :   -0.165817
   3 C :    0.198188
   4 C :   -0.014233
   5 C :    0.178573
   6 C :   -0.043207
   7 C :    0.021721
   8 C :    0.017267
   9 C :   -0.034878
  10 O :   -0.254354
  11 O :   -0.331604
  12 C :   -0.125281
  13 C :    0.127426
  14 N :   -0.083723
  15 C :    0.262513
  16 C :   -0.111706
  17 C :   -0.042795
  18 C :   -0.099097
  19 C :    0.229297
  20 O :   -0.330338
  21 C :    0.171638
  22 C :   -0.142247
  23 C :    0.213144
  24 O :   -0.338179
  25 C :    0.175312
  26 H :   -0.000445
  27 H :    0.017469
  28 H :    0.008136
  29 H :   -0.008102
  30 H :    0.049671
  31 H :    0.046937
  32 H :    0.024352
  33 H :    0.160089
  34 H :    0.037994
  35 H :    0.037905
  36 H :   -0.006913
  37 H :   -0.007679
  38 H :    0.043850
  39 H :    0.035615
  40 H :    0.035884
  41 H :   -0.019179
  42 H :    0.038329
  43 H :    0.039200
  44 H :    0.046728
Sum of atomic charges:    0.0000000

--------------------------------
MULLIKEN REDUCED ORBITAL CHARGES
--------------------------------
  0 O s       :     3.710747  s :     3.710747
      pz      :     1.477544  p :     4.533543
      px      :     1.581684
      py      :     1.474314
      dz2     :     0.004483  d :     0.017301
      dxz     :     0.005382
      dyz     :     0.004137
      dx2y2   :     0.001680
      dxy     :     0.001619

  1 C s       :     3.039629  s :     3.039629
      pz      :     1.005159  p :     2.629143
      px      :     0.789379
      py      :     0.834605
      dz2     :     0.038706  d :     0.127097
      dxz     :     0.027298
      dyz     :     0.020917
      dx2y2   :     0.019771
      dxy     :     0.020405

  2 C s       :     3.150150  s :     3.150150
      pz      :     0.828981  p :     2.984770
      px      :     0.977909
      py      :     1.177879
      dz2     :     0.008878  d :     0.030897
      dxz     :     0.008740
      dyz     :     0.004757
      dx2y2   :     0.003972
      dxy     :     0.004550

  3 C s       :     3.051009  s :     3.051009
      pz      :     0.891720  p :     2.658632
      px      :     0.921805
      py      :     0.845107
      dz2     :     0.024892  d :     0.092171
      dxz     :     0.030537
      dyz     :     0.023553
      dx2y2   :     0.006978
      dxy     :     0.006211

  4 C s       :     3.142572  s :     3.142572
      pz      :     0.873080  p :     2.833844
      px      :     0.926206
      py      :     1.034558
      dz2     :     0.011377  d :     0.037817
      dxz     :     0.009394
      dyz     :     0.006810
      dx2y2   :     0.004998
      dxy     :     0.005236

  5 C s       :     3.010694  s :     3.010694
      pz      :     0.933566  p :     2.737341
      px      :     0.863418
      py      :     0.940357
      dz2     :     0.016342  d :     0.073392
      dxz     :     0.022613
      dyz     :     0.013889
      dx2y2   :     0.010402
      dxy     :     0.010146

  6 C s       :     3.282276  s :     3.282276
      pz      :     0.765422  p :     2.728394
      px      :     0.957004
      py      :     1.005969
      dz2     :     0.009339  d :     0.032537
      dxz     :     0.007954
      dyz     :     0.004023
      dx2y2   :     0.005693
      dxy     :     0.005528

  7 C s       :     3.180810  s :     3.180810
      pz      :     0.938618  p :     2.762160
      px      :     0.884971
      py      :     0.938571
      dz2     :     0.009934  d :     0.035309
      dxz     :     0.010592
      dyz     :     0.007370
      dx2y2   :     0.003681
      dxy     :     0.003732

  8 C s       :     3.177400  s :     3.177400
      pz      :     0.884623  p :     2.771036
      px      :     0.908970
      py      :     0.977443
      dz2     :     0.008829  d :     0.034298
      dxz     :     0.011027
      dyz     :     0.005678
      dx2y2   :     0.004244
      dxy     :     0.004520

  9 C s       :     3.295073  s :     3.295073
      pz      :     0.842496  p :     2.704985
      px      :     0.919308
      py      :     0.943181
      dz2     :     0.008439  d :     0.034819
      dxz     :     0.010242
      dyz     :     0.004233
      dx2y2   :     0.006106
      dxy     :     0.005799

 10 O s       :     3.709258  s :     3.709258
      pz      :     1.596324  p :     4.529148
      px      :     1.313015
      py      :     1.619808
      dz2     :     0.003202  d :     0.015948
      dxz     :     0.004708
      dyz     :     0.002811
      dx2y2   :     0.002662
      dxy     :     0.002566

 11 O s       :     3.742839  s :     3.742839
      pz      :     1.351897  p :     4.573569
      px      :     1.681763
      py      :     1.539909
      dz2     :     0.006756  d :     0.015196
      dxz     :     0.003782
      dyz     :     0.004130
      dx2y2   :     0.000220
      dxy     :     0.000308

 12 C s       :     3.192876  s :     3.192876
      pz      :     1.008008  p :     2.867980
      px      :     1.001539
      py      :     0.858432
      dz2     :     0.017736  d :     0.064426
      dxz     :     0.016336
      dyz     :     0.015244
      dx2y2   :     0.007540
      dxy     :     0.007569

 13 C s       :     2.883112  s :     2.883112
      pz      :     0.984342  p :     2.963326
      px      :     0.969045
      py      :     1.009939
      dz2     :     0.001741  d :     0.026136
      dxz     :     0.007896
      dyz     :     0.007149
      dx2y2   :     0.002792
      dxy     :     0.006558

 14 N s       :     3.359514  s :     3.359514
      pz      :     1.106960  p :     3.701544
      px      :     1.179566
      py      :     1.415018
      dz2     :     0.006171  d :     0.022665
      dxz     :     0.007055
      dyz     :     0.004107
      dx2y2   :     0.002441
      dxy     :     0.002891

 15 C s       :     2.895118  s :     2.895118
      pz      :     1.005256  p :     2.794577
      px      :     0.804966
      py      :     0.984355
      dz2     :     0.010258  d :     0.047792
      dxz     :     0.008969
      dyz     :     0.004564
      dx2y2   :     0.012532
      dxy     :     0.011469

 16 C s       :     3.082709  s :     3.082709
      pz      :     1.074619  p :     2.990327
      px      :     0.984112
      py      :     0.931596
      dz2     :     0.004934  d :     0.038669
      dxz     :     0.005954
      dyz     :     0.006388
      dx2y2   :     0.009888
      dxy     :     0.011505

 17 C s       :     3.260929  s :     3.260929
      pz      :     0.941282  p :     2.745957
      px      :     0.856353
      py      :     0.948322
      dz2     :     0.002867  d :     0.035909
      dxz     :     0.004569
      dyz     :     0.007855
      dx2y2   :     0.010545
      dxy     :     0.010072

 18 C s       :     3.263328  s :     3.263328
      pz      :     1.053202  p :     2.803684
      px      :     0.967345
      py      :     0.783137
      dz2     :     0.003873  d :     0.032085
      dxz     :     0.005885
      dyz     :     0.003859
      dx2y2   :     0.010127
      dxy     :     0.008342

 19 C s       :     2.946163  s :     2.946163
      pz      :     0.959347  p :     2.749229
      px      :     0.864208
      py      :     0.925675
      dz2     :     0.008981  d :     0.075311
      dxz     :     0.012914
      dyz     :     0.011905
      dx2y2   :     0.020493
      dxy     :     0.021018

 20 O s       :     3.729731  s :     3.729731
      pz      :     1.756060  p :     4.584030
      px      :     1.539951
      py      :     1.288019
      dz2     :     0.002151  d :     0.016577
      dxz     :     0.002603
      dyz     :     0.002924
      dx2y2   :     0.005017
      dxy     :     0.003881

 21 C s       :     3.016356  s :     3.016356
      pz      :     1.020956  p :     2.759966
      px      :     1.037814
      py      :     0.701196
      dz2     :     0.011195  d :     0.052041
      dxz     :     0.003750
      dyz     :     0.011096
      dx2y2   :     0.015016
      dxy     :     0.010985

 22 C s       :     3.371200  s :     3.371200
      pz      :     1.028242  p :     2.741377
      px      :     0.814137
      py      :     0.898998
      dz2     :     0.002971  d :     0.029670
      dxz     :     0.003969
      dyz     :     0.005823
      dx2y2   :     0.008716
      dxy     :     0.008191

 23 C s       :     2.998677  s :     2.998677
      pz      :     0.974167  p :     2.713698
      px      :     0.965964
      py      :     0.773567
      dz2     :     0.008682  d :     0.074481
      dxz     :     0.007608
      dyz     :     0.016963
      dx2y2   :     0.022485
      dxy     :     0.018742

 24 O s       :     3.744363  s :     3.744363
      pz      :     1.675334  p :     4.577360
      px      :     1.565325
      py      :     1.336702
      dz2     :     0.002352  d :     0.016455
      dxz     :     0.002684
      dyz     :     0.002686
      dx2y2   :     0.005624
      dxy     :     0.003109

 25 C s       :     3.016486  s :     3.016486
      pz      :     0.952522  p :     2.756210
      px      :     0.827982
      py      :     0.975706
      dz2     :     0.009554  d :     0.051992
      dxz     :     0.014149
      dyz     :     0.006774
      dx2y2   :     0.012588
      dxy     :     0.008926

 26 H s       :     0.977344  s :     0.977344
      pz      :     0.014889  p :     0.023101
      px      :     0.003953
      py      :     0.004260

 27 H s       :     0.959670  s :     0.959670
      pz      :     0.004255  p :     0.022861
      px      :     0.012770
      py      :     0.005836

 28 H s       :     0.968862  s :     0.968862
      pz      :     0.008742  p :     0.023003
      px      :     0.008407
      py      :     0.005854

 29 H s       :     0.984760  s :     0.984760
      pz      :     0.014614  p :     0.023342
      px      :     0.004633
      py      :     0.004094

 30 H s       :     0.925673  s :     0.925673
      pz      :     0.008481  p :     0.024656
      px      :     0.006197
      py      :     0.009978

 31 H s       :     0.928299  s :     0.928299
      pz      :     0.008843  p :     0.024764
      px      :     0.007305
      py      :     0.008616

 32 H s       :     0.950827  s :     0.950827
      pz      :     0.006043  p :     0.024821
      px      :     0.011315
      py      :     0.007463

 33 H s       :     0.784744  s :     0.784744
      pz      :     0.015474  p :     0.055166
      px      :     0.024729
      py      :     0.014964

 34 H s       :     0.939772  s :     0.939772
      pz      :     0.014649  p :     0.022234
      px      :     0.003037
      py      :     0.004548

 35 H s       :     0.939008  s :     0.939008
      pz      :     0.005749  p :     0.023087
      px      :     0.003644
      py      :     0.013694

 36 H s       :     0.983880  s :     0.983880
      pz      :     0.006538  p :     0.023033
      px      :     0.011325
      py      :     0.005169

 37 H s       :     0.983862  s :     0.983862
      pz      :     0.005634  p :     0.023817
      px      :     0.003616
      py      :     0.014566

 38 H s       :     0.934369  s :     0.934369
      pz      :     0.005905  p :     0.021781
      px      :     0.012616
      py      :     0.003260

 39 H s       :     0.941821  s :     0.941821
      pz      :     0.014649  p :     0.022564
      px      :     0.005139
      py      :     0.002776

 40 H s       :     0.941550  s :     0.941550
      pz      :     0.007051  p :     0.022565
      px      :     0.010162
      py      :     0.005353

 41 H s       :     0.995247  s :     0.995247
      pz      :     0.007448  p :     0.023932
      px      :     0.011801
      py      :     0.004682

 42 H s       :     0.939053  s :     0.939053
      pz      :     0.012961  p :     0.022618
      px      :     0.003694
      py      :     0.005964

 43 H s       :     0.938186  s :     0.938186
      pz      :     0.006815  p :     0.022614
      px      :     0.011243
      py      :     0.004556

 44 H s       :     0.931461  s :     0.931461
      pz      :     0.004463  p :     0.021811
      px      :     0.003400
      py      :     0.013947



                     *******************************
                     * LOEWDIN POPULATION ANALYSIS *
                     *******************************

----------------------
LOEWDIN ATOMIC CHARGES
----------------------
   0 O :   -0.232054
   1 C :    0.096731
   2 C :   -0.210550
   3 C :    0.080703
   4 C :   -0.090473
   5 C :    0.065038
   6 C :   -0.045626
   7 C :   -0.001550
   8 C :   -0.039187
   9 C :    0.007549
  10 O :   -0.061055
  11 O :   -0.247235
  12 C :    0.127018
  13 C :   -0.048056
  14 N :    0.087822
  15 C :    0.055345
  16 C :   -0.094873
  17 C :   -0.007388
  18 C :   -0.098943
  19 C :    0.055181
  20 O :   -0.113003
  21 C :    0.083000
  22 C :   -0.103891
  23 C :    0.055976
  24 O :   -0.105089
  25 C :    0.085663
  26 H :    0.042473
  27 H :    0.041385
  28 H :    0.037786
  29 H :    0.033736
  30 H :    0.057035
  31 H :    0.049835
  32 H :    0.030717
  33 H :    0.063233
  34 H :    0.047170
  35 H :    0.034205
  36 H :    0.035452
  37 H :    0.035988
  38 H :    0.031482
  39 H :    0.021139
  40 H :    0.021214
  41 H :    0.037888
  42 H :    0.022641
  43 H :    0.022739
  44 H :    0.032828

-------------------------------
LOEWDIN REDUCED ORBITAL CHARGES
-------------------------------
  0 O s       :     3.542608  s :     3.542608
      pz      :     1.557710  p :     4.659894
      px      :     1.618118
      py      :     1.484065
      dz2     :     0.007785  d :     0.029552
      dxz     :     0.010355
      dyz     :     0.006359
      dx2y2   :     0.002401
      dxy     :     0.002653

  1 C s       :     2.846634  s :     2.846634
      pz      :     1.060520  p :     2.771009
      px      :     0.859553
      py      :     0.850935
      dz2     :     0.091138  d :     0.285627
      dxz     :     0.064605
      dyz     :     0.043383
      dx2y2   :     0.041699
      dxy     :     0.044803

  2 C s       :     2.864334  s :     2.864334
      pz      :     1.026895  p :     3.254802
      px      :     1.063919
      py      :     1.163988
      dz2     :     0.028684  d :     0.091414
      dxz     :     0.027930
      dyz     :     0.012534
      dx2y2   :     0.009899
      dxy     :     0.012366

  3 C s       :     2.849280  s :     2.849280
      pz      :     0.999139  p :     2.853820
      px      :     0.992897
      py      :     0.861784
      dz2     :     0.062560  d :     0.216196
      dxz     :     0.074460
      dyz     :     0.049906
      dx2y2   :     0.015349
      dxy     :     0.013921

  4 C s       :     2.854713  s :     2.854713
      pz      :     1.055251  p :     3.131750
      px      :     1.040938
      py      :     1.035561
      dz2     :     0.033839  d :     0.104010
      dxz     :     0.028917
      dyz     :     0.016374
      dx2y2   :     0.011740
      dxy     :     0.013139

  5 C s       :     2.837075  s :     2.837075
      pz      :     0.992632  p :     2.925436
      px      :     0.975626
      py      :     0.957177
      dz2     :     0.042867  d :     0.172452
      dxz     :     0.054760
      dyz     :     0.030575
      dx2y2   :     0.022089
      dxy     :     0.022161

  6 C s       :     2.864886  s :     2.864886
      pz      :     1.046700  p :     3.094298
      px      :     1.036070
      py      :     1.011529
      dz2     :     0.025348  d :     0.086441
      dxz     :     0.023537
      dyz     :     0.009170
      dx2y2   :     0.013967
      dxy     :     0.014419

  7 C s       :     2.866277  s :     2.866277
      pz      :     1.062899  p :     3.044916
      px      :     1.026019
      py      :     0.955998
      dz2     :     0.028230  d :     0.090358
      dxz     :     0.028652
      dyz     :     0.017271
      dx2y2   :     0.007787
      dxy     :     0.008417

  8 C s       :     2.862186  s :     2.862186
      pz      :     1.049321  p :     3.087617
      px      :     1.041390
      py      :     0.996906
      dz2     :     0.025078  d :     0.089384
      dxz     :     0.030447
      dyz     :     0.013153
      dx2y2   :     0.009804
      dxy     :     0.010902

  9 C s       :     2.862624  s :     2.862624
      pz      :     1.047094  p :     3.039328
      px      :     1.035170
      py      :     0.957064
      dz2     :     0.023013  d :     0.090499
      dxz     :     0.028255
      dyz     :     0.009791
      dx2y2   :     0.014673
      dxy     :     0.014767

 10 O s       :     3.431148  s :     3.431148
      pz      :     1.618463  p :     4.598201
      px      :     1.365639
      py      :     1.614099
      dz2     :     0.005933  d :     0.031707
      dxz     :     0.009324
      dyz     :     0.004346
      dx2y2   :     0.005885
      dxy     :     0.006219

 11 O s       :     3.543315  s :     3.543315
      pz      :     1.465481  p :     4.677072
      px      :     1.675494
      py      :     1.536098
      dz2     :     0.013786  d :     0.026847
      dxz     :     0.006639
      dyz     :     0.005391
      dx2y2   :     0.000465
      dxy     :     0.000565

 12 C s       :     2.855222  s :     2.855222
      pz      :     1.000325  p :     2.869746
      px      :     1.010854
      py      :     0.858567
      dz2     :     0.043184  d :     0.148014
      dxz     :     0.040711
      dyz     :     0.031446
      dx2y2   :     0.015980
      dxy     :     0.016692

 13 C s       :     2.829380  s :     2.829380
      pz      :     1.037496  p :     3.149654
      px      :     1.046136
      py      :     1.066022
      dz2     :     0.004629  d :     0.069022
      dxz     :     0.021595
      dyz     :     0.019354
      dx2y2   :     0.006287
      dxy     :     0.017157

 14 N s       :     3.054870  s :     3.054870
      pz      :     1.195023  p :     3.801767
      px      :     1.221244
      py      :     1.385500
      dz2     :     0.016641  d :     0.055541
      dxz     :     0.019202
      dyz     :     0.008882
      dx2y2   :     0.005015
      dxy     :     0.005801

 15 C s       :     2.824706  s :     2.824706
      pz      :     1.050617  p :     3.006064
      px      :     0.909945
      py      :     1.045501
      dz2     :     0.025888  d :     0.113885
      dxz     :     0.019413
      dyz     :     0.009814
      dx2y2   :     0.029510
      dxy     :     0.029262

 16 C s       :     2.856906  s :     2.856906
      pz      :     1.051048  p :     3.136779
      px      :     1.027821
      py      :     1.057910
      dz2     :     0.010726  d :     0.101189
      dxz     :     0.014192
      dyz     :     0.015319
      dx2y2   :     0.028871
      dxy     :     0.032080

 17 C s       :     2.859047  s :     2.859047
      pz      :     0.972427  p :     3.054849
      px      :     1.030363
      py      :     1.052059
      dz2     :     0.006610  d :     0.093492
      dxz     :     0.010468
      dyz     :     0.018581
      dx2y2   :     0.029238
      dxy     :     0.028594

 18 C s       :     2.859150  s :     2.859150
      pz      :     1.061456  p :     3.153462
      px      :     1.049738
      py      :     1.042269
      dz2     :     0.008570  d :     0.086332
      dxz     :     0.015327
      dyz     :     0.009131
      dx2y2   :     0.028453
      dxy     :     0.024850

 19 C s       :     2.838838  s :     2.838838
      pz      :     0.973887  p :     2.930726
      px      :     0.944998
      py      :     1.011841
      dz2     :     0.018777  d :     0.175255
      dxz     :     0.028711
      dyz     :     0.026143
      dx2y2   :     0.051620
      dxy     :     0.050004

 20 O s       :     3.433273  s :     3.433273
      pz      :     1.746272  p :     4.648596
      px      :     1.568261
      py      :     1.334064
      dz2     :     0.003591  d :     0.031133
      dxz     :     0.003845
      dyz     :     0.005282
      dx2y2   :     0.010111
      dxy     :     0.008304

 21 C s       :     2.849360  s :     2.849360
      pz      :     1.073675  p :     2.948130
      px      :     1.086520
      py      :     0.787935
      dz2     :     0.027163  d :     0.119509
      dxz     :     0.008825
      dyz     :     0.025175
      dx2y2   :     0.032712
      dxy     :     0.025634

 22 C s       :     2.862418  s :     2.862418
      pz      :     1.074958  p :     3.159274
      px      :     1.046355
      py      :     1.037961
      dz2     :     0.006933  d :     0.082199
      dxz     :     0.009447
      dyz     :     0.014187
      dx2y2   :     0.026489
      dxy     :     0.025143

 23 C s       :     2.838245  s :     2.838245
      pz      :     0.976848  p :     2.931370
      px      :     1.071773
      py      :     0.882748
      dz2     :     0.018564  d :     0.174409
      dxz     :     0.017761
      dyz     :     0.036341
      dx2y2   :     0.054514
      dxy     :     0.047229

 24 O s       :     3.431618  s :     3.431618
      pz      :     1.675114  p :     4.642439
      px      :     1.579264
      py      :     1.388061
      dz2     :     0.003982  d :     0.031033
      dxz     :     0.004485
      dyz     :     0.005259
      dx2y2   :     0.011041
      dxy     :     0.006265

[...]
      pz      :     0.042336  p :     0.065132
      px      :     0.010131
      py      :     0.012665

 35 H s       :     0.896128  s :     0.896128
      pz      :     0.016292  p :     0.069666
      px      :     0.012082
      py      :     0.041292

 36 H s       :     0.897322  s :     0.897322
      pz      :     0.019419  p :     0.067226
      px      :     0.032377
      py      :     0.015430

 37 H s       :     0.892132  s :     0.892132
      pz      :     0.018070  p :     0.071879
      px      :     0.012167
      py      :     0.041642

 38 H s       :     0.905543  s :     0.905543
      pz      :     0.015402  p :     0.062975
      px      :     0.036428
      py      :     0.011145

 39 H s       :     0.914124  s :     0.914124
      pz      :     0.043304  p :     0.064736
      px      :     0.012359
      py      :     0.009073

 40 H s       :     0.914030  s :     0.914030
      pz      :     0.018549  p :     0.064756
      px      :     0.029274
      py      :     0.016934

 41 H s       :     0.888854  s :     0.888854
      pz      :     0.023541  p :     0.073258
      px      :     0.034628
      py      :     0.015090

 42 H s       :     0.912425  s :     0.912425
      pz      :     0.037965  p :     0.064935
      px      :     0.010356
      py      :     0.016614

 43 H s       :     0.912350  s :     0.912350
      pz      :     0.019290  p :     0.064911
      px      :     0.034144
      py      :     0.011478

 44 H s       :     0.904014  s :     0.904014
      pz      :     0.011646  p :     0.063158
      px      :     0.010403
      py      :     0.041109



                      *****************************
                      * MAYER POPULATION ANALYSIS *
                      *****************************

  NA   - Mulliken gross atomic population
  ZA   - Total nuclear charge
  QA   - Mulliken gross atomic charge
  VA   - Mayer's total valence
  BVA  - Mayer's bonded valence
  FA   - Mayer's free valence

  ATOM       NA         ZA         QA         VA         BVA        FA
  0 O      8.2616     8.0000    -0.2616     2.2635     2.2635    -0.0000
  1 C      5.7959     6.0000     0.2041     4.2750     4.2750     0.0000
  2 C      6.1658     6.0000    -0.1658     3.4320     3.4320     0.0000
  3 C      5.8018     6.0000     0.1982     4.0228     4.0228    -0.0000
  4 C      6.0142     6.0000    -0.0142     3.7044     3.7044     0.0000
  5 C      5.8214     6.0000     0.1786     3.8819     3.8819     0.0000
  6 C      6.0432     6.0000    -0.0432     3.8276     3.8276     0.0000
  7 C      5.9783     6.0000     0.0217     3.7894     3.7894    -0.0000
  8 C      5.9827     6.0000     0.0173     3.7525     3.7525    -0.0000
  9 C      6.0349     6.0000    -0.0349     3.8260     3.8260     0.0000
 10 O      8.2544     8.0000    -0.2544     2.2332     2.2332    -0.0000
 11 O      8.3316     8.0000    -0.3316     2.2149     2.2149    -0.0000
 12 C      6.1253     6.0000    -0.1253     4.2358     4.2358    -0.0000
 13 C      5.8726     6.0000     0.1274     3.9267     3.9267    -0.0000
 14 N      7.0837     7.0000    -0.0837     3.4865     3.4865     0.0000
 15 C      5.7375     6.0000     0.2625     3.8960     3.8960     0.0000
 16 C      6.1117     6.0000    -0.1117     3.9053     3.9053     0.0000
 17 C      6.0428     6.0000    -0.0428     3.8503     3.8503    -0.0000
 18 C      6.0991     6.0000    -0.0991     3.7689     3.7689     0.0000
 19 C      5.7707     6.0000     0.2293     3.8671     3.8671    -0.0000
 20 O      8.3303     8.0000    -0.3303     2.2013     2.2013     0.0000
 21 C      5.8284     6.0000     0.1716     3.9123     3.9123    -0.0000
 22 C      6.1422     6.0000    -0.1422     3.7396     3.7396     0.0000
 23 C      5.7869     6.0000     0.2131     3.8832     3.8832     0.0000
 24 O      8.3382     8.0000    -0.3382     2.2154     2.2154    -0.0000
 25 C      5.8247     6.0000     0.1753     3.9076     3.9076    -0.0000
 26 H      1.0004     1.0000    -0.0004     0.9945     0.9945    -0.0000
 27 H      0.9825     1.0000     0.0175     0.9798     0.9798    -0.0000
 28 H      0.9919     1.0000     0.0081     0.9806     0.9806     0.0000
 29 H      1.0081     1.0000    -0.0081     1.0104     1.0104     0.0000
 30 H      0.9503     1.0000     0.0497     1.0091     1.0091     0.0000
 31 H      0.9531     1.0000     0.0469     1.0129     1.0129     0.0000
 32 H      0.9756     1.0000     0.0244     1.0247     1.0247    -0.0000
 33 H      0.8399     1.0000     0.1601     1.0605     1.0605     0.0000
 34 H      0.9620     1.0000     0.0380     0.9836     0.9836     0.0000
 35 H      0.9621     1.0000     0.0379     1.0105     1.0105    -0.0000
 36 H      1.0069     1.0000    -0.0069     0.9937     0.9937    -0.0000
 37 H      1.0077     1.0000    -0.0077     0.9980     0.9980     0.0000
 38 H      0.9562     1.0000     0.0438     0.9884     0.9884     0.0000
 39 H      0.9644     1.0000     0.0356     0.9870     0.9870    -0.0000
 40 H      0.9641     1.0000     0.0359     0.9871     0.9871    -0.0000
 41 H      1.0192     1.0000    -0.0192     1.0187     1.0187     0.0000
 42 H      0.9617     1.0000     0.0383     0.9870     0.9870     0.0000
 43 H      0.9608     1.0000     0.0392     0.9867     0.9867    -0.0000
 44 H      0.9533     1.0000     0.0467     0.9872     0.9872     0.0000

  Mayer bond orders larger than 0.100000
B(  0-O ,  1-C ) :   2.0542 B(  1-C ,  2-C ) :   1.0707 B(  1-C , 10-O ) :   1.0414 
B(  2-C ,  3-C ) :   1.0955 B(  2-C , 12-C ) :   1.2128 B(  3-C ,  4-C ) :   1.0195 
B(  3-C , 11-O ) :   1.8642 B(  4-C ,  5-C ) :   1.3168 B(  4-C ,  9-C ) :   1.3207 
B(  5-C ,  6-C ) :   1.3479 B(  5-C , 10-O ) :   1.0778 B(  6-C ,  7-C ) :   1.3814 
B(  6-C , 26-H ) :   0.9932 B(  7-C ,  8-C ) :   1.3243 B(  7-C , 27-H ) :   0.9875 
B(  8-C ,  9-C ) :   1.3772 B(  8-C , 28-H ) :   0.9925 B(  9-C , 29-H ) :   0.9941 
B( 11-O , 33-H ) :   0.1765 B( 12-C , 13-C ) :   1.1419 B( 12-C , 14-N ) :   1.5809 
B( 13-C , 30-H ) :   0.9180 B( 13-C , 31-H ) :   0.9168 B( 13-C , 32-H ) :   0.9220 
B( 14-N , 15-C ) :   0.9760 B( 14-N , 33-H ) :   0.8142 B( 15-C , 16-C ) :   1.0531 
B( 15-C , 34-H ) :   0.9175 B( 15-C , 35-H ) :   0.9217 B( 16-C , 17-C ) :   1.4008 
B( 16-C , 23-C ) :   1.3456 B( 17-C , 18-C ) :   1.3291 B( 17-C , 36-H ) :   0.9881 
B( 18-C , 19-C ) :   1.3066 B( 18-C , 37-H ) :   1.0009 B( 19-C , 20-O ) :   1.1444 
B( 19-C , 22-C ) :   1.2901 B( 20-O , 21-C ) :   0.9459 B( 21-C , 38-H ) :   0.9763 
B( 21-C , 39-H ) :   0.9678 B( 21-C , 40-H ) :   0.9677 B( 22-C , 23-C ) :   1.3116 
B( 22-C , 41-H ) :   1.0029 B( 23-C , 24-O ) :   1.1149 B( 24-O , 25-C ) :   0.9373 
B( 25-C , 42-H ) :   0.9672 B( 25-C , 43-H ) :   0.9682 B( 25-C , 44-H ) :   0.9754 


-------
TIMINGS
-------

Total SCF time: 0 days 0 hours 0 min 28 sec 

Total time                  ....      28.939 sec
Sum of individual times     ....      27.568 sec  ( 95.3%)

SCF preparation             ....       0.517 sec  (  1.8%)
Fock matrix formation       ....      25.418 sec  ( 87.8%)
  Startup                   ....       0.031 sec  (  0.1% of F)
  Split-RI-J                ....       2.360 sec  (  9.3% of F)
  Chain of spheres X        ....      17.329 sec  ( 68.2% of F)
  XC integration            ....       2.420 sec  (  9.5% of F)
    Basis function eval.    ....       0.781 sec  ( 32.3% of XC)
    Density eval.           ....       0.557 sec  ( 23.0% of XC)
    XC-Functional eval.     ....       0.064 sec  (  2.6% of XC)
    XC-Potential eval.      ....       0.607 sec  ( 25.1% of XC)
  CPCM terms                ....       4.252 sec  ( 16.7% of F)
Diagonalization             ....       0.000 sec  (  0.0%)
Density matrix formation    ....       0.322 sec  (  1.1%)
Total Energy calculation    ....       0.153 sec  (  0.5%)
Population analysis         ....       0.097 sec  (  0.3%)
Orbital Transformation      ....       0.093 sec  (  0.3%)
Orbital Orthonormalization  ....       0.000 sec  (  0.0%)
DIIS solution               ....       0.527 sec  (  1.8%)
SOSCF solution              ....       0.441 sec  (  1.5%)
Finished LeanSCF after  29.2 sec

Maximum memory used throughout the entire LEANSCF-calculation: 47.8 MB


-------------------------------------------------------------------------------
                          DFT DISPERSION CORRECTION                            
                                                                               
                              DFTD3 V3.1  Rev 1                                
                          USING Becke-Johnson damping                          
-------------------------------------------------------------------------------
The B3LYP functional is recognized
Active option DFTDOPT                   ...         4   

molecular C6(AA) [au] = 22792.165018 


            DFT-D V3
 parameters
 s6 scaling factor         :     1.0000 
 a1 scaling factor         :     0.3981 
 s8 scaling factor         :     1.9889 
 a2 scaling factor         :     4.4211 
 ad hoc parameters k1-k3   :    16.0000     1.3333    -4.0000 

 Edisp/kcal,au: -61.470259805858  -0.097959083949 
 E6   /kcal   : -29.063826534 
 E8   /kcal   : -32.406433272 
 % E8         :  52.718881252 

-------------------------   ----------------
Dispersion correction           -0.097959084
-------------------------   ----------------


-------------------------   --------------------
FINAL SINGLE POINT ENERGY     -1203.014359237315
-------------------------   --------------------



           ************************************************************
           *        Program running with 8 parallel MPI-processes     *
           *              working on a common directory               *
           ************************************************************

------------------------------------------------------------------------------
                              ORCA PROPERTY CALCULATIONS
------------------------------------------------------------------------------

GBWName                                 ... input\CMR_GOLD_090_sp.gbw
Number of atoms                         ...     45
Number of basis functions               ...    459
Max core memory                         ...   3000 MB

Electric properties:
Dipole moment                           ... YES
Quadrupole moment                       ...  NO
Static polarizability (Dipole/Dipole)   ...  NO
Static polarizability (Dipole/Quad.)    ...  NO
Static polarizability (Quad./Quad.)     ...  NO
Static polarizability (Velocity)        ...  NO
Static hyperpolarizability              ...  NO

Atomic electric properties:
Dipole moment                           ...  NO
Quadrupole moment                       ...  NO
Static polarizability                   ...  NO

Choice of electric origin               ... Center of mass
Position of electric origin             ...     0.809893    -0.013024     0.158737

General magnetic properties:
Magnetizability                         ...  NO

EPR properties:
g-Tensor (aka g-matrix)                 ...  NO
Zero-Field splitting spin-orbit         ...  NO
Zero-field splitting spin-spin          ...  NO
Hyperfine couplings                     ...  NO (   0 nuclei)
Quadrupole couplings                    ...  NO (   0 nuclei)
Contact density                         ...  NO (   0 nuclei)

NMR properties:
Chemical shifts                         ...  NO (   0 nuclei)
Spin-rotation constants                 ...  NO (   0 nuclei)
Spin-spin couplings                     ...  NO (   0 nuclei,    0 pairs)

Choice of magnetic origin               ... GIAO
Position of magnetic origin             ...     0.000000     0.000000     0.000000

Properties with geometric perturbations:
SCF Hessian                             ...  NO
IR spectrum                             ...  NO
VCD spectrum                            ...  NO
X-ray spectroscopy properties:
SCF XES/XAS/RIXS spectra                ...  NO

SCF SOC stabilization energy            ...  NO
Diagonal Born-Oppenheimer correction    ...  NO

-------------
DIPOLE MOMENT
-------------

Method             : SCF
Type of density    : Electron Density
Multiplicity       :   1
Irrep              :   0
Energy             : -1202.9164001533654300 Eh
Basis              : AO
                                X                 Y                 Z
Electronic contribution:     18.571555174       0.377280178       2.734561873
Nuclear contribution   :    -20.468567788      -0.321990133      -4.010868336
                        -----------------------------------------
Total Dipole Moment    :     -1.897012614       0.055290044      -1.276306463
                        -----------------------------------------
Magnitude (a.u.)       :      2.287066250
Magnitude (Debye)      :      5.813260421



--------------------
Rotational spectrum 
--------------------
 
Rotational constants in cm-1:             0.013379             0.002997             0.002830 
Rotational constants in MHz :           401.090152            89.853188            84.855102 

Dipole components along the rotational axes: 
x,y,z [a.u.] :    -2.026371     0.628577     0.854039 
x,y,z [Debye]:    -5.150626     1.597716     2.170794 

 

Dipole moment calculation done in   0.0 sec 

Maximum memory used throughout the entire PROP-calculation: 24.6 MB

--------------------------------
SUGGESTED CITATIONS FOR THIS RUN
--------------------------------

Below you find a list of papers that are relevant to this ORCA run
We neither can nor want to force you to cite these papers, but we appreciate if you do
You receive ORCA, which is the product of decades of hard work by many enthusiastic individuals, for free
The only thing we kindly ask in return is that you cite our papers,
We deeply appreciate it, if you show your appreciation for ORCA by not just citing the generic ORCA reference.

Please note that relegating all ORCA citations to the supporting information does *not* help us.
SI sections are not indexed - citations you put there will not count into any citation statistics
But we need these citations in order to attract the funding resources that allow us to do what we are doing

Therefore, if you are a happy ORCA user, please consider citing a few of the papers listed below in the main body of your paper

In addition to the list printed below, the program has created the file input\CMR_GOLD_090_sp.bibtex that contains the list in bibtex format
You can import this file easily into all common literature databanks and citation aid programs

It goes without saying that in many instances, there are alternative algorithms to achieve similar
results as the ones you have gotten from ORCA. It is, of course, also the case that in some instances
ORCA just re-implements algorithms worked out by others. We are fully aware of that and we are also
fully appreciative of our colleagues work. Hence this citation list should not be read as indicating
that the listed papers, which are focused on our own work, are the only ones worth citing. It simply
meant to make it easier for users to cite ORCA specific papers. It is not a substitute for doing your
own literature research and citing the relevant literature in a scientifically appropriate manner.

List of essential papers. We consider these as the minimum necessary citations

  1. Neese, F.
     Software update: the ORCA program system, version 6.0
     WIRES Comput. Molec. Sci. 2025 15(1), e70019
     doi.org/10.1002/wcms.70019

List of papers to cite with high priority. The work reported in these papers was absolutely
necessary for this run to complete.
Our perspective: the developers of density functionals and basis sets usually get cited in chemistry papers
Good! But without the algorithms to do something with them, the functionals or basis sets would not do anything.
Hence, in our opinion, the algorithm design and method developments papers are equally worthy of getting cited

  1. Neese, F.
     An improvement of the resolution of the identity approximation for the formation of the Coulomb matrix
     J. Comp. Chem. 2003 24(14), 1740-1747
     doi.org/10.1002/jcc.10318
  2. Neese, F.; Wennmohs, F.; Hansen, A.; Becker, U.
     Efficient, approximate and parallel Hartree-Fock and hybrid DFT calculations. A 'chain-of-spheres' algorithm for the Hartree-Fock exchange
     Chem. Phys. 2009 356(1-3), 98-109
     doi.org/10.1016/j.chemphys.2008.10.036
  3. Grimme, S.; Antony, J.; Ehrlich, S.; Krieg, H.
     A consistent and accurate ab initio parametrization of density functional dispersion correction (DFT-D) for the 94 elements H-Pu
     J. Chem. Phys. 2010 132 , 154104
     doi.org/10.1063/1.3382344
  4. Grimme, S.; Ehrlich, S.; Goerigk, L.
     Effect of the damping function in dispersion corrected density functional theory
     J. Comput. Chem. 2011 32(7), 1456-1465
     doi.org/10.1002/jcc.21759
  5. Garcia-Rates, M.; Neese, F.
     Effect of the Solute Cavity on the Solvation Energy and its Derivatives within the Framework of the Gaussian Charge Scheme
     J. Comput. Chem. 2020 41 , 922-939
     doi.org/10.1002/jcc.26139
  6. Helmich-Paris, B.; de Souza, B.; Neese, F.; Izsák, R.
     An improved chain of spheres for exchange algorithm
     J. Chem. Phys. 2021 155(10), 104109
     doi.org/10.1063/5.0058766
  7. Neese, F.
     The SHARK Integral Generation and Digestion System
     J. Comp. Chem. 2022 44(3), 381
     doi.org/10.1002/jcc.26942

List of suggested additional citations. These are papers that are important in the 'surrounding' of 
of this run, or papers that preceded the highly important papers. If you like your results we are grateful for a citation.

  1. Izsak, R.; Neese, F.
     An overlap fitted chain of spheres exchange method
     J. Chem. Phys. 2011 135 , 144105
     doi.org/10.1063/1.3646921
  2. Izsak, R.; Hansen, A.; Neese, F.
     The resolution of identity and chain of spheres approximations for the LPNO-CCSD singles Fock term
     Molec. Phys. 2012 110 , 2413-2417
     doi.org/10.1080/00268976.2012.687466
  3. Neese, F.
     The ORCA program system
     WIRES Comput. Molec. Sci. 2012 2(1), 73-78
     doi.org/10.1002/wcms.81
  4. Izsak, R.; Neese, F.; Klopper, W.
     Robust fitting techniques in the chain of spheres approximation to the Fock exchange: The role of the complementary space
     J. Chem. Phys. 2013 139 , 
     doi.org/10.1063/1.4819264
  5. Neese, F.
     Software update: the ORCA program system, version 4.0
     WIRES Comput. Molec. Sci. 2018 8(1), 1-6
     doi.org/10.1002/wcms.1327
  6. Neese, F.; Wennmohs, F.; Becker, U.; Riplinger, C.
     The ORCA quantum chemistry program package
     J. Chem. Phys. 2020 152(22), 224108
     doi.org/10.1063/5.0004608
  7. Neese, F.
     Software update: The ORCA program system—Version 5.0
     WIRES Comput. Molec. Sci. 2022 12(1), e1606
     doi.org/10.1002/wcms.1606

List of optional additional citations

  1. Neese, F.
     Approximate second-order SCF convergence for spin unrestricted wavefunctions
     Chem. Phys. Lett. 2000 325(1-3), 93-98
     doi.org/10.1016/s0009-2614(00)00662-x

Timings for individual modules:

Sum of individual times          ...       32.098 sec (=   0.535 min)
Startup calculation              ...        1.909 sec (=   0.032 min)   5.9 %
SCF iterations                   ...       30.000 sec (=   0.500 min)  93.5 %
Property calculations            ...        0.189 sec (=   0.003 min)   0.6 %
                             ****ORCA TERMINATED NORMALLY****
TOTAL RUN TIME: 0 days 0 hours 0 minutes 32 seconds 619 msec
