
                                 *****************
                                 * O   R   C   A *
                                 *****************

                                            #,                                       
                                            ###                                      
                                            ####                                     
                                            #####                                    
                                            ######                                   
                                           ########,                                 
                                     ,,################,,,,,                         
                               ,,#################################,,                 
                          ,,##########################################,,             
                       ,#########################################, ''#####,          
                    ,#############################################,,   '####,        
                  ,##################################################,,,,####,       
                ,###########''''           ''''###############################       
              ,#####''   ,,,,##########,,,,          '''####'''          '####       
            ,##' ,,,,###########################,,,                        '##       
           ' ,,###''''                  '''############,,,                           
         ,,##''                                '''############,,,,        ,,,,,,###''
      ,#''                                            '''#######################'''  
     '                                                          ''''####''''         
             ,#######,   #######,   ,#######,      ##                                
            ,#'     '#,  ##    ##  ,#'     '#,    #''#        ,####,    ,#,          
            ##       ##  ##   ,#'  ##            #'  '#       #'       ,# #          
            ##       ##  #######   ##           ,######,      #####,      #          
            '#,     ,#'  ##    ##  '#,     ,#' ,#      #,     #,   #      #          
             '#######'   ##     ##  '#######'  #'      '#     '####' #    #          



                #########################################################
                #                        -***-                          #
                #          Department of theory and spectroscopy        #
                #                                                       #
                #                      Frank Neese                      #
                #                                                       #
                #     Directorship, Architecture, Infrastructure        #
                #                    SHARK, DRIVERS                     #
                #        Core code/Algorithms in most modules           #
                #                                                       #
                #        Max Planck Institute fuer Kohlenforschung      #
                #                Kaiser Wilhelm Platz 1                 #
                #                 D-45470 Muelheim/Ruhr                 #
                #                      Germany                          #
                #                                                       #
                #                  All rights reserved                  #
                #                        -***-                          #
                #########################################################


                         Program Version 6.1.1  -  RELEASE   -


 With contributions from (in alphabetic order):
[Max-Planck-Institut fuer Kohlenforschung]                               
  Daniel Aravena         : Magnetic Suceptibility                        
  Michael Atanasov       : Ab Initio Ligand Field Theory (pilot matlab implementation)
  Alexander A. Auer      : GIAO ZORA, VPT2 properties, NMR spectrum      
  Ute Becker             : All parallelization in ORCA, NUMFREQ, NUMCALC 
  Giovanni Bistoni       : ED, misc. LED, open-shell LED, HFLD           
  Dmytro Bykov           : pre 5.0 version of the SCF Hessian            
  Marcos Casanova-Páez   : Triplet and SCS-CIS(D). UHF-(DLPNO)-IP/EA/STEOM-CCSD. UHF-CVS-IP/STEOM-CCSD   
  Vijay G. Chilkuri      : MRCI spin determinant printing, contributions to CSF-ICE 
  Pauline Colinet        : FMM embedding                                 
  Dipayan Datta          : RHF DLPNO-CCSD density                        
  Achintya Kumar Dutta   : EOM-CC, STEOM-CC                              
  Nicolas Foglia         : Exact transition moments, OPA infrastructure, MCD improvements    
  Dmitry Ganyushin       : Spin-Orbit,Spin-Spin,Magnetic field MRCI      
  Miquel Garcia-Rates    : C-PCM and meta-GGA Hessian, CCSD/C-PCM, Gaussian charge scheme 
  Tiago L. C. Gouveia    : GS-ROHF, GS-ROCIS                             
  Yang Guo               : DLPNO-NEVPT2, F12-NEVPT2, CIM, IAO-localization        
  Andreas Hansen         : Spin unrestricted coupled pair/coupled cluster methods 
  Ingolf Harden          : AUTO-CI MPn and infrastructure                
  Benjamin Helmich-Paris : MC-RPA, TRAH-(SCF,CASSCF), AVAS, COSX integrals, SCF dyn. polar., MC-PDFT, srDFT 
  Lee Huntington         : MR-EOM, pCC                                   
  Robert Izsak           : Overlap fitted RIJCOSX, COSX-SCS-MP3, EOM     
  Riya Kayal             : Wick's Theorem for AUTO-CI, AUTO-CI UHF-CCSDT 
  Emily Kempfer          : AUTO-CI RHF CISDT and CCSDT, approximate NEVPT4
  Christian Kollmar      : KDIIS, OOCD, Brueckner-CCSD(T), CCSD density, CASPT2, CASPT2-K, improved NEVPT2 
  Axel Koslowski         : Symmetry handling                             
  Simone Kossmann        : meta-GGA functionals, TD-DFT gradient, OOMP2, (MP2 Hessian; deprecated post 5.0) 
  Lucas Lang             : DCDCAS, Hyperfine gauge corrections, ICE-SOC+SSC
  Marvin Lechner         : AUTO-CI (C++ implementation), FIC-MRCC        
  Spencer Leger          : CASSCF response                               
  Dagmar Lenk            : GEPOL surface, SMD, ORCA-2-JSON               
  Dimitrios Liakos       : Extrapolation schemes; Compound Job, Property file
  Dimitrios Manganas     : Further ROCIS development; embedding schemes. LFT, Crystal Embedding 
  Dimitrios Pantazis     : SARC Basis sets                               
  Anastasios Papadopoulos: AUTO-CI, single reference methods and gradients 
  Taras Petrenko         : pre 6.0 DFT Hessian and TD-DFT gradient,  ECA, NRVS 
  Petra Pikulova         : Analytic Raman intensities                    
  Peter Pinski           : DLPNO-MP2, DLPNO-MP2 Gradient                 
  Shashank Vittal Rao    : ES-AILFT, MagRelax                            
  Christoph Reimann      : Effective Core Potentials                     
  Marius Retegan         : Local ZFS, SOC                                
  Christoph Riplinger    : Optimizer, TS searches, QM/MM, DLPNO-CCSD(T), (RO)-DLPNO pert. Triples 
  Michael Roemelt        : Original ROCIS implementation, recursive CI coupling coefficients
  Masaaki Saitow         : Open-shell DLPNO-CCSD energy and density      
  Barbara Sandhoefer     : DKH picture change effects                    
  Yorick L. A. Schmerwitz: GMF and freeze-and-release deltaSCF, NEB S-IDPP initial path                    
  Kantharuban Sivalingam : CASSCF convergence/infrastructure, NEVPT2, NEVPT3, NEVPT4(SD), FIC-MRCI and CEPA variants
  Bernardo de Souza      : ESD, SOC TD-DFT                               
  Georgi L. Stoychev     : AutoAux, RI-MP2 NMR, DLPNO-MP2 response, X2C  
  Van Anh Tran           : RI-MP2 g-tensors                              
  Willem Van den Heuvel  : Paramagnetic NMR                              
  Zikuan Wang            : NOTCH, Electric field optimization            
  Frank Wennmohs         : Technical directorship and infrastructure     
  Hang Xu                : AUTO-CI-Response properties                   
                                                                         
[FACCTs GmbH]                                                            
  Markus Bursch, Nicolas Foglia, Miquel Garcia-Rates, Ingolf Harden, Hagen Neugebauer, Anastasios Papadopoulos, 
  Christoph Riplinger, Bernardo de Souza, Georgi L. Stoychev                                                    
                                                                 
  APM, various basis sets, CI-OPT, improved COSX, DLPNO-Multilevel,           
  DOCKER, DRACO, updates on ESD, Fragmentator, GOAT, IRC, LR-CPCM, L-BFGS, MBIS, meta-GGA TD-DFT gradient, ML-optimized integration grids, 
  MM, NACMEs, nearIR, NEB, NEB-TS, NL-DFT gradient (VV10), 2- and 3-layer-ONIOM, interface openCOSMO-RS, QMMM,   
  Crystal-QMMM, RESP, rigid body optimization, SF, symmetry and pop. for TD-DFT, various functionals, SOLVATOR                                   
                                                                         
[Other institutions]                                                     
  V. Asgeirsson          : NEB                                           
  Christoph Bannwarth    : sTDA-DFT, sTD-DFT, PBEh-3c, B97-3c, D3        
  Giovanni Bistoni       : ETS/NOCV, ADLD/ADEX, COVALED                  
  Martin Brehm           : Molecular dynamics                            
  Ronald Cardenas        : ETS/NOCV                                      
  Martina Colucci        : COVALED                                       
  Sebastian Ehlert       : rSCAN, r2SCAN, r2SCAN-3c, D4, dhf basis sets  
  Marvin Friede          : D4 for Fr, Ra, Ac-Lr                          
  Lars Goerigk           : TD-DFT with DH, B97 family of functionals     
  Stefan Grimme          : VdW corrections, initial TS optimization, DFT functionals, gCP, sTDA/sTD-DF 
  Waldemar Hujo          : DFT-NL                                        
  H. Jonsson             : NEB                                           
  Holger Kruse           : gCP                                           
  Marcel Mueller         : wB97X-3c, vDZP basis set                      
  Hagen Neugebauer       : wr2SCAN, Native XTB                           
  Gianluca Regni         : ADLD/ADEX                                     
  Tobias Risthaus        : pre 6.0 range-separated hybrid DFT and stability analysis
  Lukas Wittmann         : regularized MP2, r2SCAN double-hybrids, wr2SCAN        
                                                                         
We gratefully acknowledge several colleagues who have allowed us to      
interface, adapt or use parts of their codes:                            
  Ed Valeev, F. Pavosevic, A. Kumar             : LibInt (2-el integral package), F12 methods 
  Garnet Chan, S. Sharma, J. Yang, R. Olivares  : DMRG                   
  Ulf Ekstrom                                   : XCFun DFT Library      
  Mihaly Kallay                                 : mrcc  (arbitrary order and MRCC methods)
  Frank Weinhold                                : gennbo (NPA and NBO analysis)           
  Simon Mueller                                 : openCOSMO-RS                            
  Christopher J. Cramer and Donald G. Truhlar   : smd solvation model                     
  S Lehtola, MJT Oliveira, MAL Marques          : LibXC Library                           
  Liviu Ungur et al                             : ANISO software                          


 Your calculation uses the libint2 library for the computation of 2-el integrals
 For citations please refer to: http://libint.valeyev.net

 Your ORCA version has been built with support for libXC version: 7.0.0
 For citations please refer to: https://libxc.gitlab.io

 This ORCA versions uses:
   CBLAS   interface :  Fast vector & matrix operations
   LAPACKE interface :  Fast linear algebra routines
   Shared memory     :  Shared parallel matrices


  ***********************************
  * Starting time: Wed Apr 29 15:03:07 2026
  * Host name:     AHMET
  * Process ID:    7148
  * Working dir.:  C:\orca_tests\DFT_FINAL_PROPERTIES\058\01_opt_freq
  ***********************************

NOTE: MaxCore=3000 MB was set to SCF,MP2,MDCI,CIPSI,MRCI,RASCI and CIS
      => If you want to overwrite this, your respective input block should be placed after the MaxCore statement


***************************************
The coordinates will be read from file: 058.xyz
***************************************


Your calculation utilizes the atom-pairwise dispersion correction
with the Becke-Johnson damping scheme (D3BJ)


================================================================================

----- Orbital basis set information -----
Your calculation utilizes the basis: def2-SVP
   F. Weigend and R. Ahlrichs, Phys. Chem. Chem. Phys. 7, 3297 (2005).

----- AuxJ basis set information -----
Your calculation utilizes the auxiliary basis: def2/J
   H-Rn: F. Weigend, Phys. Chem. Chem. Phys. 8, 1057 (2006).
   Fr-Lr: K. Eichkorn, F. Weigend, O. Treutler, R. Ahlrichs; Theor. Chem. Acc. 97, 119 (1997).

================================================================================
                                        WARNINGS
                       Please study these warnings very carefully!
================================================================================


WARNING: Geometry Optimization
  ===> : Switching off AutoStart
         For restart on a previous wavefunction, please use MOREAD

================================================================================
                                       INPUT FILE
================================================================================
NAME = CMR_GOLD_058_correct_opt_pal8.inp
|  1> ! B3LYP D3BJ def2-SVP CPCM(Water) TightSCF RIJCOSX def2/J Opt Freq
|  2> 
|  3> %maxcore 3000
|  4> 
|  5> %pal
|  6>   nprocs 8
|  7> end
|  8> 
|  9> * xyzfile 0 1 058.xyz
| 10> 
| 11>                          ****END OF INPUT****
================================================================================

                       *****************************
                       * Geometry Optimization Run *
                       *****************************

Geometry optimization settings:
Update method            Update   .... BFGS
Choice of coordinates    CoordSys .... (2022) Redundant Internals
Initial Hessian          InHess   .... Almloef's Model
Max. no of cycles        MaxIter  .... 204

Convergence Tolerances:
Energy Change            TolE     ....  5.0000e-06 Eh
Max. Gradient            TolMAXG  ....  3.0000e-04 Eh/bohr
RMS Gradient             TolRMSG  ....  1.0000e-04 Eh/bohr
Max. Displacement        TolMAXD  ....  4.0000e-03 bohr
RMS Displacement         TolRMSD  ....  2.0000e-03 bohr
Strict Convergence                .... False

------------------------------------------------------------------------------
                        ORCA OPTIMIZATION COORDINATE SETUP
------------------------------------------------------------------------------

The optimization will be done in redundant internal coordinates (2022)
Making redundant internal coordinates   ...  (2022 redundants) done
Evaluating the initial hessian          ...  (Almloef) done
Evaluating the coordinates              ...  done
Calculating the B-matrix                .... done
Calculating the G-matrix                .... done
The number of degrees of freedom        ....  353

    -----------------------------------------------------------------
                    Redundant Internal Coordinates


    -----------------------------------------------------------------
         Definition                    Initial Value    Approx d2E/dq
    -----------------------------------------------------------------
      1. B(C   1,O   0)                  1.2276         1.016116   
      2. B(C   2,C   1)                  1.5034         0.411936   
      3. B(C   3,C   2)                  1.4651         0.474230   
      4. B(C   4,C   3)                  1.3437         0.740710   
      5. B(C   5,C   4)                  1.5000         0.417077   
      6. B(C   6,C   5)                  1.4613         0.480830   
      7. B(C   7,C   6)                  1.3831         0.640894   
      8. B(C   8,C   7)                  1.4272         0.544997   
      9. B(C   9,C   8)                  1.3814         0.644761   
     10. B(C  10,C   9)                  1.4691         0.467322   
     11. B(C  11,C  10)                  1.3952         0.612867   
     12. B(C  12,C  11)                  1.4054         0.590372   
     13. B(C  13,C  12)                  1.4048         0.591678   
     14. B(N  14,C  13)                  1.3909         0.557811   
     15. B(C  15,N  14)                  1.4687         0.419122   
     16. B(C  16,C  15)                  1.5221         0.384595   
     17. B(C  17,N  14)                  1.4690         0.418669   
     18. B(C  18,C  17)                  1.5221         0.384606   
     19. B(C  19,C  13)                  1.4050         0.591388   
     20. B(C  20,C  19)                  1.4056         0.589927   
     21. B(C  20,C  10)                  1.3949         0.613738   
     22. B(S  21,C   9)                  1.7138         0.512840   
     23. B(S  21,C   6)                  1.7174         0.506009   
     24. B(O  22,C   5)                  1.2320         0.999842   
     25. B(C  23,C   2)                  1.3456         0.735366   
     26. B(C  24,C  23)                  1.4519         0.497778   
     27. B(C  25,C  24)                  1.3804         0.647193   
     28. B(C  26,C  25)                  1.3991         0.604150   
     29. B(C  27,C  26)                  1.4048         0.591671   
     30. B(N  28,C  27)                  1.3910         0.557474   
     31. B(C  29,N  28)                  1.4700         0.417097   
     32. B(C  30,C  29)                  1.5220         0.384651   
     33. B(C  31,N  28)                  1.4693         0.418121   
     34. B(C  31,N  14)                 20.7667         0.010000   
     35. B(C  32,C  31)                  1.5220         0.384685   
     36. B(C  33,C  27)                  1.4094         0.581773   
     37. B(C  34,C  33)                  1.4059         0.589268   
     38. B(C  34,C  24)                  1.3883         0.628637   
     39. B(O  35,C  25)                  1.4047         0.530272   
     40. B(O  35,C   1)                  1.3929         0.553662   
     41. B(H  36,C   3)                  1.0920         0.357401   
     42. B(H  37,C   4)                  1.0794         0.374343   
     43. B(H  37,C  31)                 10.1759         0.010000   
     44. B(H  37,N  14)                 10.6357         0.010000   
     45. B(H  38,C   7)                  1.0833         0.369036   
     46. B(H  39,C   8)                  1.0838         0.368399   
     47. B(H  40,C  11)                  1.0874         0.363493   
     48. B(H  41,C  12)                  1.0853         0.366333   
     49. B(H  42,C  15)                  1.0957         0.352599   
     50. B(H  43,C  15)                  1.0977         0.350058   
     51. B(H  44,C  16)                  1.0941         0.354746   
     52. B(H  45,C  16)                  1.0951         0.353448   
     53. B(H  46,C  16)                  1.0945         0.354212   
     54. B(H  47,C  17)                  1.0957         0.352595   
     55. B(H  48,C  17)                  1.0977         0.350056   
     56. B(H  49,C  18)                  1.0941         0.354750   
     57. B(H  50,C  18)                  1.0951         0.353438   
     58. B(H  51,C  18)                  1.0945         0.354220   
     59. B(H  52,C  19)                  1.0854         0.366195   
     60. B(H  53,C  20)                  1.0876         0.363249   
     61. B(H  54,C  23)                  1.0866         0.364681   
     62. B(H  55,C  26)                  1.0845         0.367465   
     63. B(H  56,C  29)                  1.0957         0.352612   
     64. B(H  57,C  29)                  1.0977         0.350071   
     65. B(H  58,C  30)                  1.0951         0.353451   
     66. B(H  59,C  30)                  1.0945         0.354223   
     67. B(H  60,C  30)                  1.0941         0.354743   
     68. B(H  61,C  31)                  1.0977         0.350070   
     69. B(H  62,C  31)                  1.0957         0.352646   
     70. B(H  63,C  32)                  1.0941         0.354744   
     71. B(H  64,C  32)                  1.0951         0.353441   
     72. B(H  65,C  32)                  1.0945         0.354222   
     73. B(H  66,C  33)                  1.0860         0.365396   
     74. B(H  67,C  34)                  1.0872         0.363885   
     75. A(O   0,C   1,C   2)          122.8583         0.437888   
     76. A(O   0,C   1,O  35)          119.8219         0.458967   
     77. A(C   2,C   1,O  35)          117.3195         0.393089   
     78. A(C   1,C   2,C   3)          122.6503         0.385051   
     79. A(C   1,C   2,C  23)          119.1505         0.415955   
     80. A(C   3,C   2,C  23)          118.1893         0.426544   
     81. A(C   2,C   3,C   4)          127.8619         0.427097   
     82. A(C   4,C   3,H  36)          117.3280         0.363284   
     83. A(C   2,C   3,H  36)          114.8083         0.336952   
     84. A(C   3,C   4,H  37)          122.5119         0.366174   
     85. A(C   3,C   4,C   5)          120.4941         0.417412   
     86. A(C   5,C   4,H  37)          116.9872         0.332387   
     87. A(C   4,C   5,O  22)          118.4653         0.437592   
     88. A(C   4,C   5,C   6)          117.7678         0.386814   
     89. A(C   6,C   5,O  22)          123.7661         0.448998   
     90. A(C   7,C   6,S  21)          110.6119         0.444350   
     91. A(C   5,C   6,S  21)          118.6203         0.421974   
     92. A(C   5,C   6,C   7)          130.7667         0.417226   
     93. A(C   8,C   7,H  38)          122.7902         0.346744   
     94. A(C   6,C   7,H  38)          124.5974         0.356375   
     95. A(C   6,C   7,C   8)          112.6104         0.426665   
     96. A(C   7,C   8,H  39)          123.9006         0.346644   
     97. A(C   9,C   8,H  39)          123.2779         0.356635   
     98. A(C   7,C   8,C   9)          112.8158         0.427125   
     99. A(C  10,C   9,S  21)          120.7610         0.420839   
    100. A(C   8,C   9,S  21)          110.6787         0.445915   
    101. A(C   8,C   9,C  10)          128.5493         0.415560   
    102. A(C  11,C  10,C  20)          117.5141         0.432374   
    103. A(C   9,C  10,C  11)          120.3582         0.411832   
    104. A(C   9,C  10,C  20)          122.1199         0.411935   
    105. A(C  10,C  11,H  40)          120.5180         0.352778   
    106. A(C  12,C  11,H  40)          118.4830         0.350555   
    107. A(C  10,C  11,C  12)          120.9925         0.429370   
    108. A(C  11,C  12,C  13)          122.6750         0.426670   
    109. A(C  13,C  12,H  41)          121.0103         0.351147   
    110. A(C  11,C  12,H  41)          116.3103         0.351016   
    111. A(C  12,C  13,N  14)          122.4218         0.419619   
    112. A(C  12,C  13,C  19)          115.1531         0.426802   
    113. A(N  14,C  13,C  19)          122.4251         0.419582   
    114. A(C  13,N  14,C  15)          122.1749         0.392282   
    115. A(C  15,N  14,C  17)          115.7378         0.373211   
    116. A(C  13,N  14,C  17)          122.0867         0.392208   
    117. A(N  14,C  15,C  16)          111.0789         0.370116   
    118. A(H  42,C  15,H  43)          104.6897         0.288598   
    119. A(C  16,C  15,H  43)          108.2214         0.324361   
    120. A(N  14,C  15,H  43)          109.6132         0.327011   
    121. A(C  16,C  15,H  42)          111.1194         0.324746   
    122. A(N  14,C  15,H  42)          111.8574         0.327401   
    123. A(C  15,C  16,H  46)          110.1747         0.324990   
    124. A(H  45,C  16,H  46)          108.0348         0.289241   
    125. A(H  44,C  16,H  46)          108.0381         0.289407   
    126. A(H  44,C  16,H  45)          107.6011         0.289309   
    127. A(C  15,C  16,H  45)          111.0158         0.324875   
    128. A(C  15,C  16,H  44)          111.8340         0.325071   
    129. A(C  18,C  17,H  48)          108.2060         0.324362   
    130. A(H  47,C  17,H  48)          104.6840         0.288597   
    131. A(N  14,C  17,H  48)          109.6182         0.326952   
    132. A(C  18,C  17,H  47)          111.1359         0.324747   
    133. A(N  14,C  17,H  47)          111.8800         0.327342   
    134. A(N  14,C  17,C  18)          111.0556         0.370049   
    135. A(H  50,C  18,H  51)          108.0362         0.289241   
    136. A(C  17,C  18,H  51)          110.1773         0.324993   
    137. A(H  49,C  18,H  50)          107.6005         0.289308   
    138. A(C  17,C  18,H  50)          111.0081         0.324875   
    139. A(C  17,C  18,H  49)          111.8356         0.325073   
    140. A(H  49,C  18,H  51)          108.0410         0.289409   
    141. A(C  13,C  19,C  20)          122.7309         0.426575   
    142. A(C  20,C  19,H  52)          116.2148         0.350949   
    143. A(C  13,C  19,H  52)          121.0506         0.351096   
    144. A(C  10,C  20,C  19)          120.9333         0.429421   
    145. A(C  10,C  20,H  53)          120.7182         0.352823   
    146. A(C  19,C  20,H  53)          118.3445         0.350470   
    147. A(C   6,S  21,C   9)           93.2807         0.450586   
    148. A(C   2,C  23,H  54)          121.5036         0.364088   
    149. A(C  24,C  23,H  54)          116.6916         0.340834   
    150. A(C   2,C  23,C  24)          121.8025         0.430267   
    151. A(C  25,C  24,C  34)          118.0609         0.438528   
    152. A(C  23,C  24,C  34)          122.7820         0.418366   
    153. A(C  23,C  24,C  25)          119.1566         0.420542   
    154. A(C  26,C  25,O  35)          117.5593         0.417399   
    155. A(C  24,C  25,O  35)          120.3999         0.422554   
    156. A(C  24,C  25,C  26)          122.0404         0.435399   
    157. A(C  27,C  26,H  55)          121.4680         0.351329   
    158. A(C  25,C  26,H  55)          116.9686         0.352572   
    159. A(C  25,C  26,C  27)          121.5603         0.428437   
    160. A(N  28,C  27,C  33)          122.2797         0.418313   
    161. A(C  26,C  27,C  33)          115.3831         0.425550   
    162. A(C  26,C  27,N  28)          122.3372         0.419573   
    163. A(C  29,N  28,C  31)          115.6292         0.372816   
    164. A(C  27,N  28,C  31)          122.2814         0.392076   
    165. A(C  27,N  28,C  29)          122.0894         0.391908   
    166. A(H  56,C  29,H  57)          104.6969         0.288602   
    167. A(C  30,C  29,H  57)          108.2348         0.324371   
    168. A(N  28,C  29,H  57)          109.6153         0.326752   
    169. A(C  30,C  29,H  56)          111.1349         0.324756   
    170. A(N  28,C  29,H  56)          111.8427         0.327142   
    171. A(N  28,C  29,C  30)          111.0580         0.369817   
    172. A(H  58,C  30,H  60)          107.6031         0.289309   
    173. A(C  29,C  30,H  60)          111.8331         0.325078   
    174. A(H  58,C  30,H  59)          108.0389         0.289243   
    175. A(C  29,C  30,H  59)          110.1761         0.325000   
    176. A(C  29,C  30,H  58)          111.0107         0.324883   
    177. A(H  59,C  30,H  60)          108.0371         0.289408   
    178. A(H  61,C  31,H  62)          104.6926         0.288606   
    179. A(C  32,C  31,H  62)          111.1356         0.324766   
    180. A(N  28,C  31,H  62)          111.8416         0.327279   
    181. A(C  32,C  31,H  61)          108.2293         0.324375   
    182. A(N  28,C  31,H  61)          109.6333         0.326884   
    183. A(N  28,C  31,C  32)          111.0506         0.369978   
    184. A(H  64,C  32,H  65)          108.0383         0.289241   
    185. A(H  63,C  32,H  65)          108.0405         0.289408   
    186. A(C  31,C  32,H  65)          110.1784         0.325004   
    187. A(H  63,C  32,H  64)          107.6021         0.289308   
    188. A(C  31,C  32,H  64)          111.0093         0.324886   
    189. A(C  31,C  32,H  63)          111.8305         0.325083   
    190. A(C  34,C  33,H  66)          116.2764         0.350753   
    191. A(C  27,C  33,H  66)          120.8526         0.349996   
    192. A(C  27,C  33,C  34)          122.8681         0.425240   
    193. A(C  33,C  34,H  67)          118.9351         0.350508   
    194. A(C  24,C  34,H  67)          120.9776         0.354364   
    195. A(C  24,C  34,C  33)          120.0871         0.431188   
    196. A(C   1,O  35,C  25)          122.1421         0.408326   
    197. D(C  23,C   2,C   1,O   0)    177.8301         0.011633   
    198. D(C   3,C   2,C   1,O  35)    179.1713         0.011633   
    199. D(C   3,C   2,C   1,O   0)     -1.0060         0.011633   
    200. D(C  23,C   2,C   1,O  35)     -1.9927         0.011633   
    201. D(H  36,C   3,C   2,C  23)     -6.8621         0.015312   
    202. D(C   4,C   3,C   2,C  23)    172.6260         0.015312   
    203. D(C   4,C   3,C   2,C   1)     -8.5273         0.015312   
    204. D(H  36,C   3,C   2,C   1)    171.9846         0.015312   
    205. D(H  37,C   4,C   3,H  36)    178.7408         0.039034   
    206. D(C   5,C   4,C   3,H  36)     -0.2814         0.039034   
    207. D(H  37,C   4,C   3,C   2)     -0.7361         0.039034   
    208. D(C   5,C   4,C   3,C   2)   -179.7583         0.039034   
    209. D(C   6,C   5,C   4,C   3)   -174.4223         0.011912   
    210. D(C   6,C   5,C   4,H  37)      6.5029         0.011912   
    211. D(O  22,C   5,C   4,H  37)   -173.1940         0.011912   
    212. D(O  22,C   5,C   4,C   3)      5.8808         0.011912   
    213. D(S  21,C   6,C   5,O  22)      8.6056         0.015741   
    214. D(S  21,C   6,C   5,C   4)   -171.0739         0.015741   
    215. D(C   7,C   6,C   5,O  22)   -170.9924         0.015741   
    216. D(C   7,C   6,C   5,C   4)      9.3280         0.015741   
    217. D(H  38,C   7,C   6,S  21)   -179.1336         0.028543   
    218. D(H  38,C   7,C   6,C   5)      0.4894         0.028543   
    219. D(C   8,C   7,C   6,S  21)      0.3650         0.028543   
    220. D(C   8,C   7,C   6,C   5)    179.9880         0.028543   
    221. D(H  39,C   8,C   7,C   6)   -179.6943         0.020307   
    222. D(C   9,C   8,C   7,H  38)    178.9708         0.020307   
    223. D(C   9,C   8,C   7,C   6)     -0.5383         0.020307   
    224. D(H  39,C   8,C   7,H  38)     -0.1852         0.020307   
    225. D(S  21,C   9,C   8,C   7)      0.4576         0.028913   
    226. D(C  10,C   9,C   8,C   7)    179.2404         0.028913   
    227. D(C  10,C   9,C   8,H  39)     -1.5975         0.028913   
    228. D(S  21,C   9,C   8,H  39)    179.6197         0.028913   
    229. D(C  11,C  10,C   9,S  21)    137.4587         0.014872   
    230. D(C  20,C  10,C   9,C   8)    137.7443         0.014872   
    231. D(C  20,C  10,C   9,S  21)    -43.5809         0.014872   
    232. D(C  11,C  10,C   9,C   8)    -41.2161         0.014872   
    233. D(H  40,C  11,C  10,C  20)    179.4377         0.025955   
    234. D(H  40,C  11,C  10,C   9)     -1.5551         0.025955   
    235. D(C  12,C  11,C  10,C  20)      0.3752         0.025955   
    236. D(C  12,C  11,C  10,C   9)    179.3824         0.025955   
    237. D(H  41,C  12,C  11,H  40)     -0.0001         0.023987   
    238. D(H  41,C  12,C  11,C  10)    179.0811         0.023987   
    239. D(C  13,C  12,C  11,H  40)   -179.2490         0.023987   
    240. D(C  13,C  12,C  11,C  10)     -0.1679         0.023987   
    241. D(C  19,C  13,C  12,H  41)   -179.2739         0.024099   
    242. D(C  19,C  13,C  12,C  11)     -0.0594         0.024099   
    243. D(N  14,C  13,C  12,H  41)      0.7702         0.024099   
    244. D(N  14,C  13,C  12,C  11)    179.9847         0.024099   
    245. D(C  17,N  14,C  13,C  19)      5.7969         0.028997   
    246. D(C  17,N  14,C  13,C  12)   -174.2504         0.028997   
    247. D(C  15,N  14,C  13,C  19)   -174.5060         0.028997   
    248. D(C  15,N  14,C  13,C  12)      5.4468         0.028997   
    249. D(H  43,C  15,N  14,C  17)    -27.0814         0.017055   
    250. D(H  43,C  15,N  14,C  13)    153.2034         0.017055   
    251. D(H  42,C  15,N  14,C  17)   -142.7392         0.017055   
    252. D(H  42,C  15,N  14,C  13)     37.5457         0.017055   
    253. D(C  16,C  15,N  14,C  17)     92.4635         0.017055   
    254. D(C  16,C  15,N  14,C  13)    -87.2517         0.017055   
    255. D(H  45,C  16,C  15,H  42)    175.7511         0.011774   
    256. D(H  45,C  16,C  15,N  14)    -59.0368         0.011774   
    257. D(H  44,C  16,C  15,H  43)   -178.4726         0.011774   
    258. D(H  44,C  16,C  15,H  42)    -64.0572         0.011774   
    259. D(H  44,C  16,C  15,N  14)     61.1550         0.011774   
    260. D(H  45,C  16,C  15,H  43)     61.3357         0.011774   
    261. D(H  48,C  17,N  14,C  15)    -26.7467         0.017018   
    262. D(H  48,C  17,N  14,C  13)    152.9688         0.017018   
    263. D(H  47,C  17,N  14,C  15)   -142.4139         0.017018   
    264. D(H  47,C  17,N  14,C  13)     37.3015         0.017018   
    265. D(C  18,C  17,N  14,C  15)     92.7677         0.017018   
    266. D(C  18,C  17,N  14,C  13)    -87.5169         0.017018   
    267. D(H  50,C  18,C  17,H  48)     61.3184         0.011775   
    268. D(H  50,C  18,C  17,H  47)    175.7271         0.011775   
    269. D(H  50,C  18,C  17,N  14)    -59.0362         0.011775   
    270. D(H  49,C  18,C  17,H  48)   -178.4948         0.011775   
    271. D(H  49,C  18,C  17,H  47)    -64.0862         0.011775   
    272. D(H  49,C  18,C  17,N  14)     61.1506         0.011775   
    273. D(H  52,C  19,C  13,N  14)      0.7559         0.024074   
    274. D(H  52,C  19,C  13,C  12)   -179.2001         0.024074   
    275. D(C  20,C  19,C  13,N  14)   -179.9743         0.024074   
    276. D(C  20,C  19,C  13,C  12)      0.0698         0.024074   
    277. D(H  53,C  20,C  19,H  52)      0.1708         0.023949   
    278. D(H  53,C  20,C  19,C  13)   -179.1320         0.023949   
    279. D(C  10,C  20,C  19,H  52)    179.4494         0.023949   
    280. D(C  10,C  20,C  19,C  13)      0.1467         0.023949   
    281. D(H  53,C  20,C  10,C  11)    178.8967         0.026033   
    282. D(H  53,C  20,C  10,C   9)     -0.0918         0.026033   
    283. D(C  19,C  20,C  10,C  11)     -0.3648         0.026033   
    284. D(C  19,C  20,C  10,C   9)   -179.3534         0.026033   
    285. D(C   6,S  21,C   9,C  10)   -179.1055         0.010000   
    286. D(C   6,S  21,C   9,C   8)     -0.2132         0.010000   
    287. D(C   9,S  21,C   6,C   7)     -0.0904         0.010000   
    288. D(C   9,S  21,C   6,C   5)   -179.7651         0.010000   
    289. D(H  54,C  23,C   2,C   3)     -0.5999         0.038421   
    290. D(H  54,C  23,C   2,C   1)   -179.4880         0.038421   
    291. D(C  24,C  23,C   2,C   3)    179.9757         0.038421   
    292. D(C  24,C  23,C   2,C   1)      1.0876         0.038421   
    293. D(C  34,C  24,C  23,H  54)      0.4544         0.016876   
    294. D(C  34,C  24,C  23,C   2)    179.9051         0.016876   
    295. D(C  25,C  24,C  23,H  54)   -179.3005         0.016876   
    296. D(C  25,C  24,C  23,C   2)      0.1502         0.016876   
    297. D(O  35,C  25,C  24,C  34)    179.7480         0.029146   
    298. D(O  35,C  25,C  24,C  23)     -0.4855         0.029146   
    299. D(C  26,C  25,C  24,C  34)     -0.0185         0.029146   
    300. D(C  26,C  25,C  24,C  23)    179.7480         0.029146   
    301. D(H  55,C  26,C  25,O  35)     -0.3422         0.025181   
    302. D(H  55,C  26,C  25,C  24)    179.4307         0.025181   
    303. D(C  27,C  26,C  25,O  35)   -179.7141         0.025181   
    304. D(C  27,C  26,C  25,C  24)      0.0587         0.025181   
    305. D(C  33,C  27,C  26,H  55)   -179.3830         0.024098   
    306. D(C  33,C  27,C  26,C  25)     -0.0392         0.024098   
    307. D(N  28,C  27,C  26,H  55)      0.6170         0.024098   
    308. D(N  28,C  27,C  26,C  25)    179.9607         0.024098   
    309. D(C  31,N  28,C  27,C  33)      5.4616         0.024807   
    310. D(C  31,N  28,C  27,C  26)   -174.5383         0.024807   
    311. D(C  29,N  28,C  27,C  33)   -174.6243         0.024807   
    312. D(C  29,N  28,C  27,C  26)      5.3757         0.024807   
    313. D(H  57,C  29,N  28,C  27)    153.2494         0.014836   
    314. D(H  56,C  29,N  28,C  31)   -142.4905         0.014836   
    315. D(H  56,C  29,N  28,C  27)     37.5901         0.014836   
    316. D(C  30,C  29,N  28,C  31)     92.7186         0.014836   
    317. D(C  30,C  29,N  28,C  27)    -87.2008         0.014836   
    318. D(H  59,C  30,C  29,H  57)    -58.2702         0.011778   
    319. D(H  59,C  30,C  29,H  56)     56.1699         0.011778   
    320. D(H  59,C  30,C  29,N  28)   -178.6411         0.011778   
    321. D(H  58,C  30,C  29,H  57)     61.3689         0.011778   
    322. D(H  58,C  30,C  29,H  56)    175.8089         0.011778   
    323. D(H  58,C  30,C  29,N  28)    -59.0021         0.011778   
    324. D(H  62,C  31,N  28,C  29)   -142.4145         0.016973   
    325. D(H  62,C  31,N  28,C  27)     37.5047         0.016973   
    326. D(H  61,C  31,N  28,C  29)    -26.7499         0.016973   
    327. D(H  61,C  31,N  28,C  27)    153.1693         0.016973   
    328. D(C  32,C  31,N  28,C  29)     92.8000         0.016973   
    329. D(C  32,C  31,N  28,C  27)    -87.2807         0.016973   
    330. D(H  65,C  32,C  31,H  61)    -58.2896         0.013174   
    331. D(H  65,C  32,C  31,N  28)   -178.6748         0.013174   
    332. D(H  64,C  32,C  31,H  62)    175.7814         0.013174   
    333. D(H  64,C  32,C  31,H  61)     61.3492         0.013174   
    334. D(H  64,C  32,C  31,N  28)    -59.0359         0.013174   
    335. D(H  63,C  32,C  31,H  62)    -64.0325         0.013174   
    336. D(H  63,C  32,C  31,H  61)   -178.4647         0.013174   
    337. D(H  63,C  32,C  31,N  28)     61.1501         0.013174   
    338. D(H  66,C  33,C  27,N  28)      0.6226         0.023260   
    339. D(H  66,C  33,C  27,C  26)   -179.3774         0.023260   
    340. D(C  34,C  33,C  27,N  28)    179.9832         0.023260   
    341. D(C  34,C  33,C  27,C  26)     -0.0168         0.023260   
    342. D(H  67,C  34,C  33,H  66)     -0.4066         0.023893   
    343. D(H  67,C  34,C  33,C  27)   -179.7944         0.023893   
    344. D(C  24,C  34,C  33,H  66)    179.4438         0.023893   
    345. D(C  24,C  34,C  33,C  27)      0.0560         0.023893   
    346. D(H  67,C  34,C  24,C  25)    179.8103         0.027393   
    347. D(H  67,C  34,C  24,C  23)      0.0529         0.027393   
    348. D(C  33,C  34,C  24,C  25)     -0.0370         0.027393   
    349. D(C  33,C  34,C  24,C  23)   -179.7944         0.027393   
    350. D(C   1,O  35,C  25,C  26)    179.2605         0.020275   
    351. D(C   1,O  35,C  25,C  24)     -0.5163         0.020275   
    352. D(C  25,O  35,C   1,C   2)      1.7164         0.022185   
    353. D(C  25,O  35,C   1,O   0)   -178.1120         0.022185   
    -----------------------------------------------------------------

Number of atoms                         .... 68
Number of degrees of freedom            .... 353


         *************************************************************
         *                GEOMETRY OPTIMIZATION CYCLE   1            *
         *************************************************************
---------------------------------
CARTESIAN COORDINATES (ANGSTROEM)
---------------------------------
  O      2.735444   -1.473808    0.462785
  C      3.607138   -0.627530    0.286685
  C      3.298628    0.826254    0.059704
  C      1.929497    1.345234    0.009363
  C      0.782498    0.645584   -0.009202
  C     -0.539329    1.352277   -0.067538
  C     -1.750196    0.541393    0.040402
  C     -1.917574   -0.793444    0.361481
  C     -3.287982   -1.191958    0.353924
  C     -4.145525   -0.155512    0.039648
  C     -5.609439   -0.182803   -0.080046
  C     -6.246131   -1.256763   -0.702903
  C     -7.646460   -1.302744   -0.813308
  C     -8.480576   -0.290661   -0.309848
  N     -9.865963   -0.341405   -0.422310
  C    -10.563731   -1.511412   -0.971159
  C    -10.678921   -1.419235   -2.486079
  C    -10.724141    0.775511   -0.005264
  C    -11.079424    0.670507    1.471039
  C     -7.814159    0.775979    0.316315
  C     -6.414591    0.834089    0.433079
  S     -3.268770    1.287268   -0.254680
  O     -0.545137    2.576169   -0.208658
  C      4.314308    1.697598   -0.081417
  C      5.700950    1.268980   -0.043683
  C      5.986520   -0.069180    0.138852
  C      7.300195   -0.548980    0.179642
  C      8.401849    0.311061    0.037403
  N      9.714283   -0.148278    0.076172
  C     10.038626   -1.579999    0.152877
  C     10.075039   -2.055830    1.598174
  C     10.866060    0.763528    0.045103
  C     11.270077    1.085380   -1.386586
  C      8.085881    1.672120   -0.147395
  C      6.764227    2.149787   -0.188904
  O      4.948602   -1.002440    0.296325
  H      1.853167    2.434089   -0.024364
  H      0.760960   -0.433594    0.000934
  H     -1.110021   -1.473922    0.603158
  H     -3.626980   -2.195434    0.583565
  H     -5.665345   -2.071840   -1.128201
  H     -8.060559   -2.165391   -1.325462
  H    -10.086867   -2.450154   -0.667864
  H    -11.577016   -1.565993   -0.552570
  H     -9.697034   -1.388695   -2.967714
  H    -11.222313   -0.516511   -2.784414
  H    -11.221267   -2.285883   -2.876830
  H    -10.270881    1.746411   -0.234479
  H    -11.656542    0.760054   -0.584345
  H    -10.190081    0.707113    2.107222
  H    -11.600192   -0.269071    1.683644
  H    -11.737502    1.495726    1.760584
  H     -8.366309    1.603361    0.750746
  H     -5.974063    1.686831    0.944650
  H      4.135243    2.757690   -0.238744
  H      7.430099   -1.614155    0.336623
  H      9.349842   -2.186671   -0.445561
  H     11.025882   -1.758558   -0.292502
  H     10.817901   -1.496931    2.176942
  H     10.341149   -3.116651    1.639757
  H      9.107220   -1.929720    2.092576
  H     11.722208    0.293470    0.546079
  H     10.677177    1.678526    0.617507
  H     10.464394    1.582926   -1.934612
  H     11.530339    0.174169   -1.935366
  H     12.142746    1.745904   -1.393187
  H      8.869203    2.413117   -0.276932
  H      6.593667    3.213049   -0.338187

----------------------------
CARTESIAN COORDINATES (A.U.)
----------------------------
  NO LB      ZA    FRAG     MASS         X           Y           Z
   0 O     8.0000    0    15.999    5.169240   -2.785094    0.874536
   1 C     6.0000    0    12.011    6.816503   -1.185859    0.541756
   2 C     6.0000    0    12.011    6.233504    1.561394    0.112824
   3 C     6.0000    0    12.011    3.646222    2.542123    0.017694
   4 C     6.0000    0    12.011    1.478707    1.219977   -0.017389
   5 C     6.0000    0    12.011   -1.019184    2.555434   -0.127628
   6 C     6.0000    0    12.011   -3.307392    1.023084    0.076348
   7 C     6.0000    0    12.011   -3.623689   -1.499393    0.683100
   8 C     6.0000    0    12.011   -6.213385   -2.252474    0.668820
   9 C     6.0000    0    12.011   -7.833908   -0.293875    0.074923
  10 C     6.0000    0    12.011  -10.600303   -0.345448   -0.151265
  11 C     6.0000    0    12.011  -11.803477   -2.374937   -1.328294
  12 C     6.0000    0    12.011  -14.449715   -2.461830   -1.536929
  13 C     6.0000    0    12.011  -16.025966   -0.549269   -0.585528
  14 N     7.0000    0    14.007  -18.643968   -0.645162   -0.798050
  15 C     6.0000    0    12.011  -19.962559   -2.856155   -1.835225
  16 C     6.0000    0    12.011  -20.180236   -2.681966   -4.698008
  17 C     6.0000    0    12.011  -20.265689    1.465503   -0.009947
  18 C     6.0000    0    12.011  -20.937077    1.267074    2.779861
  19 C     6.0000    0    12.011  -14.766621    1.466387    0.597748
  20 C     6.0000    0    12.011  -12.121820    1.576199    0.818401
  21 S    16.0000    0    32.060   -6.177079    2.432584   -0.481276
  22 O     8.0000    0    15.999   -1.030160    4.868254   -0.394306
  23 C     6.0000    0    12.011    8.152861    3.207996   -0.153856
  24 C     6.0000    0    12.011   10.773235    2.398025   -0.082549
  25 C     6.0000    0    12.011   11.312884   -0.130731    0.262391
  26 C     6.0000    0    12.011   13.795369   -1.037421    0.339474
  27 C     6.0000    0    12.011   15.877194    0.587820    0.070681
  28 N     7.0000    0    14.007   18.357335   -0.280204    0.143943
  29 C     6.0000    0    12.011   18.970253   -2.985765    0.288896
  30 C     6.0000    0    12.011   19.039064   -3.884956    3.020111
  31 C     6.0000    0    12.011   20.533877    1.442859    0.085233
  32 C     6.0000    0    12.011   21.297359    2.051071   -2.620268
  33 C     6.0000    0    12.011   15.280100    3.159848   -0.278535
  34 C     6.0000    0    12.011   12.782536    4.062508   -0.356977
  35 O     8.0000    0    15.999    9.351503   -1.894338    0.559973
  36 H     1.0000    0     1.008    3.501979    4.599761   -0.046041
  37 H     1.0000    0     1.008    1.438006   -0.819374    0.001764
  38 H     1.0000    0     1.008   -2.097635   -2.785309    1.139803
  39 H     1.0000    0     1.008   -6.853999   -4.148768    1.102779
  40 H     1.0000    0     1.008  -10.705951   -3.915210   -2.131992
  41 H     1.0000    0     1.008  -15.232249   -4.091995   -2.504759
  42 H     1.0000    0     1.008  -19.061417   -4.630121   -1.262080
  43 H     1.0000    0     1.008  -21.877390   -2.959298   -1.044207
  44 H     1.0000    0     1.008  -18.324739   -2.624253   -5.608166
  45 H     1.0000    0     1.008  -21.207098   -0.976064   -5.261780
  46 H     1.0000    0     1.008  -21.205122   -4.319693   -5.436421
  47 H     1.0000    0     1.008  -19.409153    3.300239   -0.443101
  48 H     1.0000    0     1.008  -22.027672    1.436293   -1.104253
  49 H     1.0000    0     1.008  -19.256463    1.336249    3.982073
  50 H     1.0000    0     1.008  -21.921187   -0.508470    3.181626
  51 H     1.0000    0     1.008  -22.180664    2.826513    3.327021
  52 H     1.0000    0     1.008  -15.810033    3.029913    1.418704
  53 H     1.0000    0     1.008  -11.289343    3.187649    1.785129
  54 H     1.0000    0     1.008    7.814477    5.211279   -0.451161
  55 H     1.0000    0     1.008   14.040853   -3.050310    0.636126
  56 H     1.0000    0     1.008   17.668641   -4.132209   -0.841988
  57 H     1.0000    0     1.008   20.835897   -3.323194   -0.552748
  58 H     1.0000    0     1.008   20.442871   -2.828790    4.113824
  59 H     1.0000    0     1.008   19.541940   -5.889618    3.098691
  60 H     1.0000    0     1.008   17.210151   -3.646642    3.954395
  61 H     1.0000    0     1.008   22.151763    0.554578    1.031941
  62 H     1.0000    0     1.008   20.176941    3.171955    1.166920
  63 H     1.0000    0     1.008   19.774839    2.991296   -3.655887
  64 H     1.0000    0     1.008   21.789183    0.329131   -3.657312
  65 H     1.0000    0     1.008   22.946464    3.299281   -2.632743
  66 H     1.0000    0     1.008   16.760365    4.560131   -0.523326
  67 H     1.0000    0     1.008   12.460226    6.071784   -0.639081

--------------------------------
INTERNAL COORDINATES (ANGSTROEM)
--------------------------------
 O      0   0   0     0.000000000000     0.00000000     0.00000000
 C      1   0   0     1.227619320319     0.00000000     0.00000000
 C      2   1   0     1.503391369333   122.85832450     0.00000000
 C      3   2   1     1.465057631185   122.65029081   358.99404624
 C      4   3   2     1.343674344681   127.86185038   351.47265224
 C      5   4   3     1.500015358760   120.49407994   180.24166699
 C      6   5   4     1.461295249015   117.76781272   185.57768769
 C      7   6   5     1.383075441945   130.76673940     9.32804415
 C      8   7   6     1.427196154426   112.61043000   179.98800529
 C      9   8   7     1.381438085365   112.81584039   359.46170242
 C     10   9   8     1.469052085365   128.54930448   179.24043728
 C     11  10   9     1.395247631899   120.35822921   318.78388426
 C     12  11  10     1.405426985849   120.99247172   179.38241339
 C     13  12  11     1.404825386040   122.67504165   359.83213646
 N     14  13  12     1.390870141462   122.42181783   179.98467588
 C     15  14  13     1.468683853575   122.17489946     5.44680813
 C     16  15  14     1.522086295194   111.07889477   272.74832020
 C     15  14  13     1.468978384431   122.08668392   185.74962147
 C     18  15  14     1.522078179827   111.05564437   272.48313232
 C     14  13  12     1.404959123166   115.15306178   359.94062775
 C     11  10   9     1.394860940655   122.11985524   137.74429425
 S     10   9   8     1.713751154500   110.67870491     0.45761491
 O      6   5   4     1.232014398550   118.46532087     5.88075727
 C      3   2   1     1.345645293700   119.15054896   177.83008063
 C     24   3   2     1.451865841846   121.80254192     1.08763102
 C     25  24   3     1.380413115554   119.15661119     0.15020174
 C     26  25  24     1.399147012153   122.04037577   179.74799962
 C     27  26  25     1.404828814508   121.56028398     0.05868681
 N     28  27  26     1.391034753056   122.33717938   179.96072864
 C     29  28  27     1.470002224999   122.08940013     5.37573824
 C     30  29  28     1.522046258135   111.05799285   272.79918319
 C     29  28  27     1.469334729187   122.28136469   185.46166103
 C     32  29  28     1.522022678635   111.05063367   272.71927766
 C     28  27  26     1.409421107258   115.38312027   359.96077806
 C     25  24   3     1.388331969500   122.78202053   179.90507026
 O      2   1   3     1.392902463120   119.82191186   179.81852276
 H      4   3   2     1.092048093988   114.80829135   171.98460104
 H      5   4   3     1.079440589231   122.51189309   359.26392981
 H      8   7   6     1.083327787900   124.59740249     0.48938878
 H      9   8   7     1.083797952591   123.90058051   180.30570932
 H     12  11  10     1.087447420479   120.51804624   358.44493471
 H     13  12  11     1.085328731729   116.31031057   179.08110361
 H     16  15  14     1.095730065675   111.85737482    37.54565944
 H     16  15  14     1.097698526974   109.61321803   153.20343599
 H     17  16  15     1.094077776497   111.83400025    61.15497562
 H     17  16  15     1.095075156692   111.01581321   300.96323531
 H     17  16  15     1.094487948552   110.17474750   181.32691353
 H     18  15  14     1.095733067197   111.88002959    37.30151378
 H     18  15  14     1.097700388086   109.61819851   152.96879688
 H     19  18  15     1.094074474517   111.83558711    61.15056587
 H     19  18  15     1.095082935016   111.00813689   300.96381376
 H     19  18  15     1.094481745239   110.17729558   181.32892621
 H     20  14  13     1.085431216321   121.05064180   180.79993557
 H     21  11  10     1.087630067510   120.71818260   359.90816706
 H     24   3   2     1.086559225428   121.50355144   180.51202082
 H     27  26  25     1.084488806161   116.96862629   179.43067375
 H     30  29  28     1.095719738277   111.84267112    37.59009618
 H     30  29  28     1.097688858712   109.61534503   153.24944542
 H     31  30  29     1.095073075109   111.01065907   300.99791997
 H     31  30  29     1.094479631814   110.17606352   181.35890186
 H     31  30  29     1.094079720983   111.83306195    61.18799068
 H     32  29  28     1.097689415961   109.63334460   153.16932170
 H     32  29  28     1.095693697585   111.84164419    37.50474270
 H     33  32  29     1.094079004538   111.83047004    61.15014688
 H     33  32  29     1.095081134116   111.00928002   300.96407946
 H     33  32  29     1.094479719665   110.17836257   181.32518897
 H     34  28  27     1.086025439095   120.85261515   180.62258995
 H     35  25  24     1.087154006433   120.97757503     0.05287242

---------------------------
INTERNAL COORDINATES (A.U.)
---------------------------
 O      0   0   0     0.000000000000     0.00000000     0.00000000
 C      1   0   0     2.319864312113     0.00000000     0.00000000
 C      2   1   0     2.840997960140   122.85832450     0.00000000
 C      3   2   1     2.768557693352   122.65029081   358.99404624
 C      4   3   2     2.539176524624   127.86185038   351.47265224
 C      5   4   3     2.834618224733   120.49407994   180.24166699
 C      6   5   4     2.761447821438   117.76781272   185.57768769
 C      7   6   5     2.613633807829   130.76673940     9.32804415
 C      8   7   6     2.697009871251   112.61043000   179.98800529
 C      9   8   7     2.610539652309   112.81584039   359.46170242
 C     10   9   8     2.776106117806   128.54930448   179.24043728
 C     11  10   9     2.636635913290   120.35822921   318.78388426
 C     12  11  10     2.655872104478   120.99247172   179.38241339
 C     13  12  11     2.654735245596   122.67504165   359.83213646
 N     14  13  12     2.628363655212   122.42181783   179.98467588
 C     15  14  13     2.775410260569   122.17489946     5.44680813
 C     16  15  14     2.876326250112   111.07889477   272.74832020
 C     15  14  13     2.775966843225   122.08668392   185.74962147
 C     18  15  14     2.876310914290   111.05564437   272.48313232
 C     14  13  12     2.654987972137   115.15306178   359.94062775
 C     11  10   9     2.635905172741   122.11985524   137.74429425
 S     10   9   8     3.238520343697   110.67870491     0.45761491
 O      6   5   4     2.328169806308   118.46532087     5.88075727
 C      3   2   1     2.542901078493   119.15054896   177.83008063
 C     24   3   2     2.743628824283   121.80254192     1.08763102
 C     25  24   3     2.608602740069   119.15661119     0.15020174
 C     26  25  24     2.644004674063   122.04037577   179.74799962
 C     27  26  25     2.654741724462   121.56028398     0.05868681
 N     28  27  26     2.628674726042   122.33717938   179.96072864
 C     29  28  27     2.777901621503   122.08940013     5.37573824
 C     30  29  28     2.876250591034   111.05799285   272.79918319
 C     29  28  27     2.776640237222   122.28136469   185.46166103
 C     32  29  28     2.876206032238   111.05063367   272.71927766
 C     28  27  26     2.663419900086   115.38312027   359.96077806
 C     25  24   3     2.623567205323   122.78202053   179.90507026
 O      2   1   3     2.632204186561   119.82191186   179.81852276
 H      4   3   2     2.063671822707   114.80829135   171.98460104
 H      5   4   3     2.039847091485   122.51189309   359.26392981
 H      8   7   6     2.047192832399   124.59740249     0.48938878
 H      9   8   7     2.048081314902   123.90058051   180.30570932
 H     12  11  10     2.054977809744   120.51804624   358.44493471
 H     13  12  11     2.050974068245   116.31031057   179.08110361
 H     16  15  14     2.070629740829   111.85737482    37.54565944
 H     16  15  14     2.074349593589   109.61321803   153.20343599
 H     17  16  15     2.067507366790   111.83400025    61.15497562
 H     17  16  15     2.069392142209   111.01581321   300.96323531
 H     17  16  15     2.068282479641   110.17474750   181.32691353
 H     18  15  14     2.070635412883   111.88002959    37.30151378
 H     18  15  14     2.074353110581   109.61819851   152.96879688
 H     19  18  15     2.067501126952   111.83558711    61.15056587
 H     19  18  15     2.069406841111   111.00813689   300.96381376
 H     19  18  15     2.068270757078   110.17729558   181.32892621
 H     20  14  13     2.051167736056   121.05064180   180.79993557
 H     21  11  10     2.055322962613   120.71818260   359.90816706
 H     24   3   2     2.053299364344   121.50355144   180.51202082
 H     27  26  25     2.049386838947   116.96862629   179.43067375
 H     30  29  28     2.070610224876   111.84267112    37.59009618
 H     30  29  28     2.074331323222   109.61534503   153.24944542
 H     31  30  29     2.069388208587   111.01065907   300.99791997
 H     31  30  29     2.068266763283   110.17606352   181.35890186
 H     31  30  29     2.067511041335   111.83306195    61.18799068
 H     32  29  28     2.074332376271   109.63334460   153.16932170
 H     32  29  28     2.070561015099   111.84164419    37.50474270
 H     33  32  29     2.067509687451   111.83047004    61.15014688
 H     33  32  29     2.069403437902   111.00928002   300.96407946
 H     33  32  29     2.068266929298   110.17836257   181.32518897
 H     34  28  27     2.052290654361   120.85261515   180.62258995
 H     35  25  24     2.054423337554   120.97757503     0.05287242

---------------------
BASIS SET INFORMATION
---------------------
There are 5 groups of distinct atoms

 Group   1 Type O   : 7s4p1d contracted to 3s2p1d pattern {511/31/1}
 Group   2 Type C   : 7s4p1d contracted to 3s2p1d pattern {511/31/1}
 Group   3 Type N   : 7s4p1d contracted to 3s2p1d pattern {511/31/1}
 Group   4 Type S   : 10s7p1d contracted to 4s3p1d pattern {5311/511/1}
 Group   5 Type H   : 4s1p contracted to 2s1p pattern {31/1}

Atom   0O    basis set group =>   1
Atom   1C    basis set group =>   2
Atom   2C    basis set group =>   2
Atom   3C    basis set group =>   2
Atom   4C    basis set group =>   2
Atom   5C    basis set group =>   2
Atom   6C    basis set group =>   2
Atom   7C    basis set group =>   2
Atom   8C    basis set group =>   2
Atom   9C    basis set group =>   2
Atom  10C    basis set group =>   2
Atom  11C    basis set group =>   2
Atom  12C    basis set group =>   2
Atom  13C    basis set group =>   2
Atom  14N    basis set group =>   3
Atom  15C    basis set group =>   2
Atom  16C    basis set group =>   2
Atom  17C    basis set group =>   2
Atom  18C    basis set group =>   2
Atom  19C    basis set group =>   2
Atom  20C    basis set group =>   2
Atom  21S    basis set group =>   4
Atom  22O    basis set group =>   1
Atom  23C    basis set group =>   2
Atom  24C    basis set group =>   2
Atom  25C    basis set group =>   2
Atom  26C    basis set group =>   2
Atom  27C    basis set group =>   2
Atom  28N    basis set group =>   3
Atom  29C    basis set group =>   2
Atom  30C    basis set group =>   2
Atom  31C    basis set group =>   2
Atom  32C    basis set group =>   2
Atom  33C    basis set group =>   2
Atom  34C    basis set group =>   2
Atom  35O    basis set group =>   1
Atom  36H    basis set group =>   5
Atom  37H    basis set group =>   5
Atom  38H    basis set group =>   5
Atom  39H    basis set group =>   5
Atom  40H    basis set group =>   5
Atom  41H    basis set group =>   5
Atom  42H    basis set group =>   5
Atom  43H    basis set group =>   5
Atom  44H    basis set group =>   5
Atom  45H    basis set group =>   5
Atom  46H    basis set group =>   5
Atom  47H    basis set group =>   5
Atom  48H    basis set group =>   5
Atom  49H    basis set group =>   5
Atom  50H    basis set group =>   5
Atom  51H    basis set group =>   5
Atom  52H    basis set group =>   5
Atom  53H    basis set group =>   5
Atom  54H    basis set group =>   5
Atom  55H    basis set group =>   5
Atom  56H    basis set group =>   5
Atom  57H    basis set group =>   5
Atom  58H    basis set group =>   5
Atom  59H    basis set group =>   5
Atom  60H    basis set group =>   5
Atom  61H    basis set group =>   5
Atom  62H    basis set group =>   5
Atom  63H    basis set group =>   5
Atom  64H    basis set group =>   5
Atom  65H    basis set group =>   5
Atom  66H    basis set group =>   5
Atom  67H    basis set group =>   5
---------------------------------
AUXILIARY/J BASIS SET INFORMATION
---------------------------------
There are 5 groups of distinct atoms

 Group   1 Type O   : 12s5p4d2f1g contracted to 6s4p3d1f1g pattern {711111/2111/211/2/1}
 Group   2 Type C   : 12s5p4d2f1g contracted to 6s4p3d1f1g pattern {711111/2111/211/2/1}
 Group   3 Type N   : 12s5p4d2f1g contracted to 6s4p3d1f1g pattern {711111/2111/211/2/1}
 Group   4 Type S   : 14s5p5d2f1g contracted to 8s4p3d1f1g pattern {71111111/2111/311/2/1}
 Group   5 Type H   : 5s2p1d contracted to 3s1p1d pattern {311/2/1}

Atom   0O    basis set group =>   1
Atom   1C    basis set group =>   2
Atom   2C    basis set group =>   2
Atom   3C    basis set group =>   2
Atom   4C    basis set group =>   2
Atom   5C    basis set group =>   2
Atom   6C    basis set group =>   2
Atom   7C    basis set group =>   2
Atom   8C    basis set group =>   2
Atom   9C    basis set group =>   2
Atom  10C    basis set group =>   2
Atom  11C    basis set group =>   2
Atom  12C    basis set group =>   2
Atom  13C    basis set group =>   2
Atom  14N    basis set group =>   3
Atom  15C    basis set group =>   2
Atom  16C    basis set group =>   2
Atom  17C    basis set group =>   2
Atom  18C    basis set group =>   2
Atom  19C    basis set group =>   2
Atom  20C    basis set group =>   2
Atom  21S    basis set group =>   4
Atom  22O    basis set group =>   1
Atom  23C    basis set group =>   2
Atom  24C    basis set group =>   2
Atom  25C    basis set group =>   2
Atom  26C    basis set group =>   2
Atom  27C    basis set group =>   2
Atom  28N    basis set group =>   3
Atom  29C    basis set group =>   2
Atom  30C    basis set group =>   2
Atom  31C    basis set group =>   2
Atom  32C    basis set group =>   2
Atom  33C    basis set group =>   2
Atom  34C    basis set group =>   2
Atom  35O    basis set group =>   1
Atom  36H    basis set group =>   5
Atom  37H    basis set group =>   5
Atom  38H    basis set group =>   5
Atom  39H    basis set group =>   5
Atom  40H    basis set group =>   5
Atom  41H    basis set group =>   5
Atom  42H    basis set group =>   5
Atom  43H    basis set group =>   5
Atom  44H    basis set group =>   5
Atom  45H    basis set group =>   5
Atom  46H    basis set group =>   5
Atom  47H    basis set group =>   5
Atom  48H    basis set group =>   5
Atom  49H    basis set group =>   5
Atom  50H    basis set group =>   5
Atom  51H    basis set group =>   5
Atom  52H    basis set group =>   5
Atom  53H    basis set group =>   5
Atom  54H    basis set group =>   5
Atom  55H    basis set group =>   5
Atom  56H    basis set group =>   5
Atom  57H    basis set group =>   5
Atom  58H    basis set group =>   5
Atom  59H    basis set group =>   5
Atom  60H    basis set group =>   5
Atom  61H    basis set group =>   5
Atom  62H    basis set group =>   5
Atom  63H    basis set group =>   5
Atom  64H    basis set group =>   5
Atom  65H    basis set group =>   5
Atom  66H    basis set group =>   5
Atom  67H    basis set group =>   5


           ************************************************************
           *        Program running with 8 parallel MPI-processes     *
           *              working on a common directory               *
           ************************************************************
------------------------------------------------------------------------------
                             ORCA STARTUP CALCULATIONS
                           -- RI-GTO INTEGRALS CHOSEN --
------------------------------------------------------------------------------
------------------------------------------------------------------------------
                   ___                                                        
                  /   \      - P O W E R E D   B Y -                         
                 /     \                                                     
                 |  |  |   _    _      __       _____    __    __             
                 |  |  |  | |  | |    /  \     |  _  \  |  |  /  |          
                  \  \/   | |  | |   /    \    | | | |  |  | /  /          
                 / \  \   | |__| |  /  /\  \   | |_| |  |  |/  /          
                |  |  |   |  __  | /  /__\  \  |    /   |      \           
                |  |  |   | |  | | |   __   |  |    \   |  |\   \          
                \     /   | |  | | |  |  |  |  | |\  \  |  | \   \       
                 \___/    |_|  |_| |__|  |__|  |_| \__\ |__|  \__/        
                                                                              
                      - O R C A' S   B I G   F R I E N D -                    
                                      &                                       
                       - I N T E G R A L  F E E D E R -                       
                                                                              
 v1 FN, 2020, v2 2021, v3 2022-2024                                           
------------------------------------------------------------------------------


----------------------
SHARK INTEGRAL PACKAGE
----------------------

Number of atoms                             ...     68
Number of basis functions                   ...    668
Number of shells                            ...    314
Maximum angular momentum                    ...      2
Integral batch strategy                     ... SHARK/LIBINT Hybrid
RI-J (if used) integral strategy            ... SPLIT-RIJ (Revised 2003 algorithm where possible)
Printlevel                                  ...      1
Contraction scheme used                     ... SEGMENTED contraction
Prescreening option                         ... SCHWARTZ
   Thresh                                   ... 2.500e-11
   Tcut                                     ... 2.500e-12
   Tpresel                                  ... 2.500e-12 
Coulomb Range Separation                    ... NOT USED
Exchange Range Separation                   ... NOT USED
Multipole approximations                    ... NOT USED
Finite Nucleus Model                        ... NOT USED
CABS basis                                  ... NOT available
Auxiliary Coulomb fitting basis             ... AVAILABLE
   # of basis functions in Aux-J            ...   2118
   # of shells in Aux-J                     ...    702
   Maximum angular momentum in Aux-J        ...      4
Auxiliary J/K fitting basis                 ... NOT available
Auxiliary Correlation fitting basis         ... NOT available
Auxiliary 'external' fitting basis          ... NOT available

Checking pre-screening integrals            ... done (  0.0 sec) Dimension = 314
   => SHARK Basis and OBASIS are compatible. Storing Pre-screening
Shell pair information
Shell pair cut-off parameter TPreSel        ...   2.5e-12
Total number of shell pairs                 ...     49455
Shell pairs after pre-screening             ...     20340
Total number of primitive shell pairs       ...    179675
Primitive shell pairs kept                  ...     47374
          la=0 lb=0:   6302 shell pairs
          la=1 lb=0:   7639 shell pairs
          la=1 lb=1:   2371 shell pairs
          la=2 lb=0:   2365 shell pairs
          la=2 lb=1:   1435 shell pairs
          la=2 lb=2:    228 shell pairs

Checking whether 4 symmetric matrices of dimension 668 fit in memory
:Max Core in MB      =   3000.00
 MB in use           =     23.46
 MB left             =   2976.54
 MB needed           =      6.82
 Data fit in memory  = YES
Calculating RI/J V-Matrix + Cholesky decomp.... done (  0.1 sec)
Calculating Nuclear repulsion               ... done (  0.0 sec) ENN=   3431.916726659719 Eh

Diagonalization of the overlap matrix:
Smallest eigenvalue                        ... 1.999e-04
Time for diagonalization                   ...    0.029 sec
Threshold for overlap eigenvalues          ... 1.000e-07
Number of eigenvalues below threshold      ... 0
Time for construction of square roots      ...    0.024 sec
Total time needed                          ...    0.057 sec

-------------------
DFT GRID GENERATION
-------------------

General Integration Accuracy     IntAcc      ... 4.388
Radial Grid Type                 RadialGrid  ... OptM3 with GC (2021)
Angular Grid (max. ang.)         AngularGrid ... 4 (Lebedev-302)
Angular grid pruning method      GridPruning ... 4 (adaptive)
Weight generation scheme         WeightScheme... mBecke (2022)
Basis function cutoff            BFCut       ... 1.0000e-11
Integration weight cutoff        WCut        ... 1.0000e-14
Partially contracted basis set               ... off
Rotationally invariant grid construction     ... off
Angular grids for H and He will be reduced by one unit

Total number of grid points                  ...   317951
Total number of batches                      ...     5003
Average number of points per batch           ...       63
Average number of grid points per atom       ...     4676

--------------------
COSX GRID GENERATION
--------------------

GRIDX 1
-------
General Integration Accuracy     IntAcc      ... 3.816
Radial Grid Type                 RadialGrid  ... OptM3 with GC (2021)
Angular Grid (max. ang.)         AngularGrid ... 1 (Lebedev-50)
Angular grid pruning method      GridPruning ... 4 (adaptive)
Weight generation scheme         WeightScheme... mBecke (2022)
Basis function cutoff            BFCut       ... 1.0000e-11
Integration weight cutoff        WCut        ... 1.0000e-14
Partially contracted basis set               ... on
Rotationally invariant grid construction     ... off
Angular grids for H and He will be reduced by one unit

Total number of grid points                  ...    41520
Total number of batches                      ...      366
Average number of points per batch           ...      113
Average number of grid points per atom       ...      611
UseSFitting                                  ... on

GRIDX 2
-------
General Integration Accuracy     IntAcc      ... 4.020
Radial Grid Type                 RadialGrid  ... OptM3 with GC (2021)
Angular Grid (max. ang.)         AngularGrid ... 2 (Lebedev-110)
Angular grid pruning method      GridPruning ... 4 (adaptive)
Weight generation scheme         WeightScheme... mBecke (2022)
Basis function cutoff            BFCut       ... 1.0000e-11
Integration weight cutoff        WCut        ... 1.0000e-14
Partially contracted basis set               ... on
Rotationally invariant grid construction     ... off
Angular grids for H and He will be reduced by one unit

Total number of grid points                  ...    86854
Total number of batches                      ...      715
Average number of points per batch           ...      121
Average number of grid points per atom       ...     1277
UseSFitting                                  ... on

GRIDX 3
-------
General Integration Accuracy     IntAcc      ... 4.338
Radial Grid Type                 RadialGrid  ... OptM3 with GC (2021)
Angular Grid (max. ang.)         AngularGrid ... 3 (Lebedev-194)
Angular grid pruning method      GridPruning ... 4 (adaptive)
Weight generation scheme         WeightScheme... mBecke (2022)
Basis function cutoff            BFCut       ... 1.0000e-11
Integration weight cutoff        WCut        ... 1.0000e-14
Partially contracted basis set               ... on
Rotationally invariant grid construction     ... off
Angular grids for H and He will be reduced by one unit

Total number of grid points                  ...   190176
Total number of batches                      ...     1526
Average number of points per batch           ...      124
Average number of grid points per atom       ...     2797
UseSFitting                                  ... on
Grids setup in   2.3 sec
Initializing property integral containers    ... done (  0.0 sec)

SHARK setup successfully completed in   2.7 seconds

Maximum memory used throughout the entire STARTUP-calculation: 82.8 MB


           ************************************************************
           *        Program running with 8 parallel MPI-processes     *
           *              working on a common directory               *
           ************************************************************
-------------------------------------------------------------------------------
                                 ORCA GUESS
                   Start orbitals & Density for SCF / CASSCF
-------------------------------------------------------------------------------

------------
SCF SETTINGS
------------
Hamiltonian:
 Density Functional     Method          .... DFT(GTOs)
 Exchange Functional    Exchange        .... B88
   X-Alpha parameter    XAlpha          ....  0.666667
   Becke's b parameter  XBeta           ....  0.004200
 Correlation Functional Correlation     .... LYP
 LDA part of GGA corr.  LDAOpt          .... VWN-5
 Gradients option       PostSCFGGA      .... off
 Hybrid DFT is turned on
   Fraction HF Exchange ScalHFX         ....  0.200000
   Scaling of DF-GGA-X  ScalDFX         ....  0.720000
   Scaling of DF-GGA-C  ScalDFC         ....  0.810000
   Scaling of DF-LDA-C  ScalLDAC        ....  1.000000
   Perturbative correction              ....  0.000000
   NL short-range parameter             ....  4.800000
 RI-approximation to the Coulomb term is turned on
   Number of AuxJ basis functions       .... 2118
   RIJ-COSX (HFX calculated with COS-X)).... on


General Settings:
 Integral files         IntName         .... CMR_GOLD_058_correct_opt_pal8
 Hartree-Fock type      HFTyp           .... RHF
 Total Charge           Charge          ....    0
 Multiplicity           Mult            ....    1
 Number of Electrons    NEL             ....  266
 Basis Dimension        Dim             ....  668
 Nuclear Repulsion      ENuc            ....   3431.9167266597 Eh

Convergence Acceleration:
 AO-DIIS                CNVDIIS         .... on
   Start iteration      DIISMaxIt       ....    12
   Startup error        DIISStart       ....  0.200000
   # of expansion vecs  DIISMaxEq       ....     5
   Bias factor          DIISBfac        ....   1.050
   Max. coefficient     DIISMaxC        ....  10.000
 MO-DIIS                CNVKDIIS        .... off
 Trust-Rad. Augm. Hess. CNVTRAH         .... auto
   Auto Start mean grad. ratio tolernc. ....  1.125000
   Auto Start start iteration           ....    50
   Auto Start num. interpolation iter.  ....    10
   Max. Number of Micro iterations      ....    24
   Max. Number of Macro iterations      .... Maxiter - #DIIS iter
   Number of Davidson start vectors     ....     2
   Converg. threshold    (grad. norm)   ....   1.000e-05
   Grad. Scal. Fac. for Micro threshold ....   0.100
   Minimum threshold for Micro iter.    ....   1.000e-02
   NR start threshold (gradient norm)   ....   1.000e-04
   Initial trust radius                 ....   0.400
   Minimum AH scaling param. (alpha)    ....   1.000
   Maximum AH scaling param. (alpha)    .... 1000.000
   Quad. conv. algorithm                .... NR
   White noise on init. David. guess    .... on
   Maximum white noise                  ....   0.010
   Pseudo random numbers                .... off
   Inactive MOs                         .... canonical
   Orbital update algorithm             .... Taylor
   Preconditioner                       .... Diag
   Full preconditioner red. dimension   ....   250
 SOSCF                 CNVSOSCF           .... on
   Start iteration     SOSCFMaxIt         ....   150
   Startup grad/error  SOSCFStart         ....  0.003300
   Hessian update      SOSCFHessUp        .... L-BFGS
   Autom. constraints  SOSCFAutoConstrain .... off
 Level Shifting         CNVShift        .... on
   Level shift para.    LevelShift      ....    0.2500
   Turn off err/grad.   ShiftErr        ....    0.0010
 Zerner damping         CNVZerner       .... off
 Static damping         CNVDamp         .... on
   Fraction old density DampFac         ....    0.7000
   Max. Damping (<1)    DampMax         ....    0.9800
   Min. Damping (>=0)   DampMin         ....    0.0000
   Turn off err/grad.   DampErr         ....    0.1000

SCF Procedure:
 Maximum # iterations   MaxIter         ....   125
 SCF integral mode      SCFMode         .... Direct
   Integral package                     .... SHARK and LIBINT hybrid scheme
 Reset frequency        DirectResetFreq ....    20
 Integral Threshold     Thresh          ....  2.500e-11 Eh
 Primitive CutOff       TCut            ....  2.500e-12 Eh

Convergence Tolerance:
 Convergence Check Mode ConvCheckMode   .... Total+1el-Energy
 Convergence forced     ConvForced      .... 0
 Energy Change          TolE            ....  1.000e-08 Eh
 1-El. energy change                    ....  1.000e-05 Eh
 Orbital Gradient       TolG            ....  1.000e-05
 Orbital Rotation angle TolX            ....  1.000e-05
 DIIS Error             TolErr          ....  5.000e-07

------------------------------
INITIAL GUESS: MODEL POTENTIAL
------------------------------
Loading Hartree-Fock densities                     ... done
Calculating cut-offs                               ... done
Initializing the effective Hamiltonian             ... done
Setting up the integral package (SHARK)            ... done
Starting the Coulomb interaction                   ... done (   0.2 sec)
Making the grid                                    ... done (   0.3 sec)
Mapping shells                                     ... done
Starting the XC term evaluation                    ... done (   0.1 sec)
  promolecular density results
     # of electrons  =    265.989799218
     EX              =   -226.586129916
     EC              =     -9.107847881
     EX+EC           =   -235.693977798
Transforming the Hamiltonian                       ... done (   0.0 sec)
Diagonalizing the Hamiltonian                      ... done (   0.0 sec)
Back transforming the eigenvectors                 ... done (   0.0 sec)
Now organizing SCF variables                       ... done
                      ------------------
                      INITIAL GUESS DONE (   0.8 sec)
                      ------------------
             **** ENERGY FILE WAS UPDATED (CMR_GOLD_058_correct_opt_pal8.en.tmp) ****
Finished Guess after   1.0 sec
Maximum memory used throughout the entire GUESS-calculation: 33.4 MB


[...]
freq.     231.62  E(vib)   ...       0.32 
freq.     241.49  E(vib)   ...       0.31 
freq.     245.62  E(vib)   ...       0.31 
freq.     253.17  E(vib)   ...       0.30 
freq.     269.76  E(vib)   ...       0.29 
freq.     271.86  E(vib)   ...       0.29 
freq.     295.08  E(vib)   ...       0.27 
freq.     313.55  E(vib)   ...       0.25 
freq.     334.35  E(vib)   ...       0.24 
freq.     340.59  E(vib)   ...       0.23 
freq.     345.95  E(vib)   ...       0.23 
freq.     374.48  E(vib)   ...       0.21 
freq.     387.99  E(vib)   ...       0.20 
freq.     399.52  E(vib)   ...       0.19 
freq.     420.16  E(vib)   ...       0.18 
freq.     432.57  E(vib)   ...       0.18 
freq.     436.44  E(vib)   ...       0.17 
freq.     441.51  E(vib)   ...       0.17 
freq.     447.78  E(vib)   ...       0.17 
freq.     466.96  E(vib)   ...       0.16 
freq.     476.18  E(vib)   ...       0.15 
freq.     477.07  E(vib)   ...       0.15 
freq.     502.37  E(vib)   ...       0.14 
freq.     508.79  E(vib)   ...       0.14 
freq.     514.46  E(vib)   ...       0.13 
freq.     536.65  E(vib)   ...       0.12 
freq.     553.32  E(vib)   ...       0.12 
freq.     563.80  E(vib)   ...       0.11 
freq.     565.53  E(vib)   ...       0.11 
freq.     590.89  E(vib)   ...       0.10 
freq.     621.94  E(vib)   ...       0.09 
freq.     630.17  E(vib)   ...       0.09 
freq.     646.64  E(vib)   ...       0.09 
freq.     669.35  E(vib)   ...       0.08 
freq.     672.76  E(vib)   ...       0.08 
freq.     698.78  E(vib)   ...       0.07 
freq.     719.93  E(vib)   ...       0.07 
freq.     733.66  E(vib)   ...       0.06 
freq.     746.69  E(vib)   ...       0.06 
freq.     752.39  E(vib)   ...       0.06 
freq.     756.53  E(vib)   ...       0.06 
freq.     758.44  E(vib)   ...       0.06 
freq.     782.86  E(vib)   ...       0.05 
freq.     791.18  E(vib)   ...       0.05 
freq.     795.07  E(vib)   ...       0.05 
freq.     797.55  E(vib)   ...       0.05 
freq.     798.27  E(vib)   ...       0.05 
freq.     801.64  E(vib)   ...       0.05 
freq.     819.08  E(vib)   ...       0.05 
freq.     827.02  E(vib)   ...       0.04 
freq.     828.51  E(vib)   ...       0.04 
freq.     834.25  E(vib)   ...       0.04 
freq.     851.44  E(vib)   ...       0.04 
freq.     864.83  E(vib)   ...       0.04 
freq.     888.30  E(vib)   ...       0.04 
freq.     906.84  E(vib)   ...       0.03 
freq.     907.59  E(vib)   ...       0.03 
freq.     916.89  E(vib)   ...       0.03 
freq.     938.64  E(vib)   ...       0.03 
freq.     939.30  E(vib)   ...       0.03 
freq.     941.32  E(vib)   ...       0.03 
freq.     964.45  E(vib)   ...       0.03 
freq.     969.99  E(vib)   ...       0.03 
freq.     984.29  E(vib)   ...       0.02 
freq.     984.41  E(vib)   ...       0.02 
freq.     991.36  E(vib)   ...       0.02 
freq.    1000.23  E(vib)   ...       0.02 
freq.    1002.58  E(vib)   ...       0.02 
freq.    1020.18  E(vib)   ...       0.02 
freq.    1030.80  E(vib)   ...       0.02 
freq.    1031.78  E(vib)   ...       0.02 
freq.    1033.56  E(vib)   ...       0.02 
freq.    1075.23  E(vib)   ...       0.02 
freq.    1089.56  E(vib)   ...       0.02 
freq.    1089.77  E(vib)   ...       0.02 
freq.    1090.20  E(vib)   ...       0.02 
freq.    1091.17  E(vib)   ...       0.02 
freq.    1091.59  E(vib)   ...       0.02 
freq.    1108.17  E(vib)   ...       0.02 
freq.    1108.47  E(vib)   ...       0.02 
freq.    1152.01  E(vib)   ...       0.01 
freq.    1154.21  E(vib)   ...       0.01 
freq.    1171.50  E(vib)   ...       0.01 
freq.    1175.32  E(vib)   ...       0.01 
freq.    1204.92  E(vib)   ...       0.01 
freq.    1208.40  E(vib)   ...       0.01 
freq.    1211.15  E(vib)   ...       0.01 
freq.    1213.60  E(vib)   ...       0.01 
freq.    1223.58  E(vib)   ...       0.01 
freq.    1233.08  E(vib)   ...       0.01 
freq.    1241.66  E(vib)   ...       0.01 
freq.    1279.83  E(vib)   ...       0.01 
freq.    1285.57  E(vib)   ...       0.01 
freq.    1297.57  E(vib)   ...       0.01 
freq.    1302.50  E(vib)   ...       0.01 
freq.    1307.35  E(vib)   ...       0.01 
freq.    1309.23  E(vib)   ...       0.01 
freq.    1318.64  E(vib)   ...       0.01 
freq.    1331.20  E(vib)   ...       0.01 
freq.    1331.59  E(vib)   ...       0.01 
freq.    1354.85  E(vib)   ...       0.01 
freq.    1359.45  E(vib)   ...       0.01 
freq.    1368.09  E(vib)   ...       0.01 
freq.    1373.65  E(vib)   ...       0.01 
freq.    1375.87  E(vib)   ...       0.01 
freq.    1376.96  E(vib)   ...       0.01 
freq.    1385.82  E(vib)   ...       0.00 
freq.    1390.51  E(vib)   ...       0.00 
freq.    1391.39  E(vib)   ...       0.00 
freq.    1391.67  E(vib)   ...       0.00 
freq.    1392.01  E(vib)   ...       0.00 
freq.    1398.98  E(vib)   ...       0.00 
freq.    1406.97  E(vib)   ...       0.00 
freq.    1438.05  E(vib)   ...       0.00 
freq.    1447.86  E(vib)   ...       0.00 
freq.    1448.59  E(vib)   ...       0.00 
freq.    1449.18  E(vib)   ...       0.00 
freq.    1450.52  E(vib)   ...       0.00 
freq.    1451.11  E(vib)   ...       0.00 
freq.    1452.33  E(vib)   ...       0.00 
freq.    1453.46  E(vib)   ...       0.00 
freq.    1459.42  E(vib)   ...       0.00 
freq.    1462.27  E(vib)   ...       0.00 
freq.    1469.14  E(vib)   ...       0.00 
freq.    1476.27  E(vib)   ...       0.00 
freq.    1479.69  E(vib)   ...       0.00 
freq.    1489.58  E(vib)   ...       0.00 
freq.    1496.58  E(vib)   ...       0.00 
freq.    1499.85  E(vib)   ...       0.00 
freq.    1514.36  E(vib)   ...       0.00 
freq.    1549.10  E(vib)   ...       0.00 
freq.    1558.54  E(vib)   ...       0.00 
freq.    1576.95  E(vib)   ...       0.00 
freq.    1579.61  E(vib)   ...       0.00 
freq.    1589.21  E(vib)   ...       0.00 
freq.    1609.50  E(vib)   ...       0.00 
freq.    1640.32  E(vib)   ...       0.00 
freq.    1657.73  E(vib)   ...       0.00 
freq.    1666.40  E(vib)   ...       0.00 
freq.    1694.48  E(vib)   ...       0.00 
freq.    1783.92  E(vib)   ...       0.00 
freq.    3027.95  E(vib)   ...       0.00 
freq.    3028.18  E(vib)   ...       0.00 
freq.    3030.38  E(vib)   ...       0.00 
freq.    3031.19  E(vib)   ...       0.00 
freq.    3050.93  E(vib)   ...       0.00 
freq.    3058.47  E(vib)   ...       0.00 
freq.    3061.63  E(vib)   ...       0.00 
freq.    3068.39  E(vib)   ...       0.00 
freq.    3094.79  E(vib)   ...       0.00 
freq.    3097.89  E(vib)   ...       0.00 
freq.    3104.29  E(vib)   ...       0.00 
freq.    3106.51  E(vib)   ...       0.00 
freq.    3113.73  E(vib)   ...       0.00 
freq.    3113.84  E(vib)   ...       0.00 
freq.    3118.60  E(vib)   ...       0.00 
freq.    3118.82  E(vib)   ...       0.00 
freq.    3119.30  E(vib)   ...       0.00 
freq.    3120.08  E(vib)   ...       0.00 
freq.    3123.64  E(vib)   ...       0.00 
freq.    3124.91  E(vib)   ...       0.00 
freq.    3151.33  E(vib)   ...       0.00 
freq.    3173.16  E(vib)   ...       0.00 
freq.    3178.28  E(vib)   ...       0.00 
freq.    3188.13  E(vib)   ...       0.00 
freq.    3188.89  E(vib)   ...       0.00 
freq.    3210.26  E(vib)   ...       0.00 
freq.    3222.06  E(vib)   ...       0.00 
freq.    3224.36  E(vib)   ...       0.00 
freq.    3224.94  E(vib)   ...       0.00 
freq.    3236.09  E(vib)   ...       0.00 
freq.    3241.07  E(vib)   ...       0.00 
freq.    3244.30  E(vib)   ...       0.00 

------------
INNER ENERGY
------------

The inner energy is: U= E(el) + E(ZPE) + E(vib) + E(rot) + E(trans)
    E(el)   - is the total energy from the electronic structure calculation
              = E(kin-el) + E(nuc-el) + E(el-el) + E(nuc-nuc)
    E(ZPE)  - the the zero temperature vibrational energy from the frequency calculation
    E(vib)  - the the finite temperature correction to E(ZPE) due to population
              of excited vibrational states
    E(rot)  - is the rotational thermal energy
    E(trans)- is the translational thermal energy

Summary of contributions to the inner energy U:
Electronic energy                ...  -1893.85204731 Eh
Zero point energy                ...      0.55851936 Eh     350.48 kcal/mol
Thermal vibrational correction   ...      0.03166186 Eh      19.87 kcal/mol
Thermal rotational correction    ...      0.00141627 Eh       0.89 kcal/mol
Thermal translational correction ...      0.00141627 Eh       0.89 kcal/mol
-----------------------------------------------------------------------
Total thermal energy                  -1893.25903355 Eh


Summary of corrections to the electronic energy:
(perhaps to be used in another calculation)
Total thermal correction                  0.03449441 Eh      21.65 kcal/mol
Non-thermal (ZPE) correction              0.55851936 Eh     350.48 kcal/mol
-----------------------------------------------------------------------
Total correction                          0.59301376 Eh     372.12 kcal/mol


--------
ENTHALPY
--------

The enthalpy is H = U + kB*T
                kB is Boltzmann's constant
Total thermal energy              ...  -1893.25903355 Eh 
Thermal Enthalpy correction       ...      0.00094421 Eh       0.59 kcal/mol
-----------------------------------------------------------------------
Total Enthalpy                    ...  -1893.25808934 Eh


Note: Only C1 symmetry has been detected, increase convergence thresholds 
      if your molecule has a higher symmetry. Symmetry factor of 1.0 is   
      used for the rotational entropy correction. 
 

Note: Rotational entropy computed according to Herzberg 
Infrared and Raman Spectra, Chapter V,1, Van Nostrand Reinhold, 1945 
Point Group:  C1, Symmetry Number:   1  
Rotational constants in cm-1:     0.016546     0.000659     0.000640 

Vibrational entropy computed according to the QRRHO of S. Grimme
Chem.Eur.J. 2012 18 9955 using a reference frequency of 100.0 cm-1


-------
ENTROPY
-------

The entropy contributions are T*S = T*(S(el)+S(vib)+S(rot)+S(trans))
     S(el)   - electronic entropy
     S(vib)  - vibrational entropy
     S(rot)  - rotational entropy
     S(trans)- translational entropy
The entropies will be listed as multiplied by the temperature to get
units of energy

Electronic entropy                ...      0.00000000 Eh      0.00 kcal/mol
Vibrational entropy               ...      0.05770800 Eh     36.21 kcal/mol
Rotational entropy                ...      0.01837710 Eh     11.53 kcal/mol
Translational entropy             ...      0.02115250 Eh     13.27 kcal/mol
-----------------------------------------------------------------------
Final entropy term                ...      0.09723760 Eh     61.02 kcal/mol

In case the symmetry of your molecule has not been determined correctly
or in case you have a reason to use a different symmetry number we print 
out the resulting rotational entropy values for sn=1,12:

 non-linear molecules -----------------------------------
|  sn= 1 | S(rot)=       0.01837710 Eh     11.53 kcal/mol|
|  sn= 2 | S(rot)=       0.01772264 Eh     11.12 kcal/mol|
|  sn= 3 | S(rot)=       0.01733981 Eh     10.88 kcal/mol|
|  sn= 4 | S(rot)=       0.01706819 Eh     10.71 kcal/mol|
|  sn= 5 | S(rot)=       0.01685750 Eh     10.58 kcal/mol|
|  sn= 6 | S(rot)=       0.01668535 Eh     10.47 kcal/mol|
|  sn= 7 | S(rot)=       0.01653981 Eh     10.38 kcal/mol|
|  sn= 8 | S(rot)=       0.01641373 Eh     10.30 kcal/mol|
|  sn= 9 | S(rot)=       0.01630252 Eh     10.23 kcal/mol|
|  sn=10 | S(rot)=       0.01620304 Eh     10.17 kcal/mol|
|  sn=11 | S(rot)=       0.01611305 Eh     10.11 kcal/mol|
|  sn=12 | S(rot)=       0.01603090 Eh     10.06 kcal/mol|
 linear molecules ---------------------------------------
|  Dinfh | S(rot)=       0.01226947 Eh      7.70 kcal/mol|
|  Cinfv | S(rot)=       0.01292393 Eh      8.11 kcal/mol|
 --------------------------------------------------------


-------------------
GIBBS FREE ENERGY
-------------------

The Gibbs free energy is G = H - T*S

Total enthalpy                    ...  -1893.25808934 Eh 
Total entropy correction          ...     -0.09723760 Eh    -61.02 kcal/mol
-----------------------------------------------------------------------
Final Gibbs free energy         ...  -1893.35532694 Eh

For completeness - the Gibbs free energy minus the electronic energy
G-E(el)                           ...      0.49672037 Eh    311.70 kcal/mol


Maximum memory used throughout the entire PROP-calculation: 607.0 MB

--------------------------------
SUGGESTED CITATIONS FOR THIS RUN
--------------------------------

Below you find a list of papers that are relevant to this ORCA run
We neither can nor want to force you to cite these papers, but we appreciate if you do
You receive ORCA, which is the product of decades of hard work by many enthusiastic individuals, for free
The only thing we kindly ask in return is that you cite our papers,
We deeply appreciate it, if you show your appreciation for ORCA by not just citing the generic ORCA reference.

Please note that relegating all ORCA citations to the supporting information does *not* help us.
SI sections are not indexed - citations you put there will not count into any citation statistics
But we need these citations in order to attract the funding resources that allow us to do what we are doing

Therefore, if you are a happy ORCA user, please consider citing a few of the papers listed below in the main body of your paper

In addition to the list printed below, the program has created the file CMR_GOLD_058_correct_opt_pal8.bibtex that contains the list in bibtex format
You can import this file easily into all common literature databanks and citation aid programs

It goes without saying that in many instances, there are alternative algorithms to achieve similar
results as the ones you have gotten from ORCA. It is, of course, also the case that in some instances
ORCA just re-implements algorithms worked out by others. We are fully aware of that and we are also
fully appreciative of our colleagues work. Hence this citation list should not be read as indicating
that the listed papers, which are focused on our own work, are the only ones worth citing. It simply
meant to make it easier for users to cite ORCA specific papers. It is not a substitute for doing your
own literature research and citing the relevant literature in a scientifically appropriate manner.

List of essential papers. We consider these as the minimum necessary citations

  1. Neese, F.
     Software update: the ORCA program system, version 6.0
     WIRES Comput. Molec. Sci. 2025 15(1), e70019
     doi.org/10.1002/wcms.70019

List of papers to cite with high priority. The work reported in these papers was absolutely
necessary for this run to complete.
Our perspective: the developers of density functionals and basis sets usually get cited in chemistry papers
Good! But without the algorithms to do something with them, the functionals or basis sets would not do anything.
Hence, in our opinion, the algorithm design and method developments papers are equally worthy of getting cited

  1. Neese, F.
     An improvement of the resolution of the identity approximation for the formation of the Coulomb matrix
     J. Comp. Chem. 2003 24(14), 1740-1747
     doi.org/10.1002/jcc.10318
  2. Neese, F.; Wennmohs, F.; Hansen, A.; Becker, U.
     Efficient, approximate and parallel Hartree-Fock and hybrid DFT calculations. A 'chain-of-spheres' algorithm for the Hartree-Fock exchange
     Chem. Phys. 2009 356(1-3), 98-109
     doi.org/10.1016/j.chemphys.2008.10.036
  3. Grimme, S.; Antony, J.; Ehrlich, S.; Krieg, H.
     A consistent and accurate ab initio parametrization of density functional dispersion correction (DFT-D) for the 94 elements H-Pu
     J. Chem. Phys. 2010 132 , 154104
     doi.org/10.1063/1.3382344
  4. Grimme, S.; Ehrlich, S.; Goerigk, L.
     Effect of the damping function in dispersion corrected density functional theory
     J. Comput. Chem. 2011 32(7), 1456-1465
     doi.org/10.1002/jcc.21759
  5. Bykov, D.; Petrenko, T.; Izsak, R.; Kossmann, S.; Becker, U.; Valeev, E.; Neese, F.
     Efficient implementation of the analytic second derivatives of Hartree-Fock and hybrid DFT energies: a detailed analysis of different approximations
     Molec. Phys. 2015 113 , 1961-1977
     doi.org/10.1080/00268976.2015.1025114
  6. Garcia-Rates, M.; Neese, F.
     Efficient implementation of the analytical second derivatives of hartree-fock and hybrid DFT energies within the framework of the conductor-like polarizable continuum model
     J. Comput. Chem. 2019 40 , 1816-1828
     doi.org/10.1002/jcc.25833
  7. Garcia-Rates, M.; Neese, F.
     Effect of the Solute Cavity on the Solvation Energy and its Derivatives within the Framework of the Gaussian Charge Scheme
     J. Comput. Chem. 2020 41 , 922-939
     doi.org/10.1002/jcc.26139
  8. Helmich-Paris, B.; de Souza, B.; Neese, F.; Izsák, R.
     An improved chain of spheres for exchange algorithm
     J. Chem. Phys. 2021 155(10), 104109
     doi.org/10.1063/5.0058766
  9. Neese, F.
     The SHARK Integral Generation and Digestion System
     J. Comp. Chem. 2022 44(3), 381
     doi.org/10.1002/jcc.26942

List of suggested additional citations. These are papers that are important in the 'surrounding' of 
of this run, or papers that preceded the highly important papers. If you like your results we are grateful for a citation.

  1. Izsak, R.; Neese, F.
     An overlap fitted chain of spheres exchange method
     J. Chem. Phys. 2011 135 , 144105
     doi.org/10.1063/1.3646921
  2. Izsak, R.; Hansen, A.; Neese, F.
     The resolution of identity and chain of spheres approximations for the LPNO-CCSD singles Fock term
     Molec. Phys. 2012 110 , 2413-2417
     doi.org/10.1080/00268976.2012.687466
  3. Neese, F.
     The ORCA program system
     WIRES Comput. Molec. Sci. 2012 2(1), 73-78
     doi.org/10.1002/wcms.81
  4. Izsak, R.; Neese, F.; Klopper, W.
     Robust fitting techniques in the chain of spheres approximation to the Fock exchange: The role of the complementary space
     J. Chem. Phys. 2013 139 , 
     doi.org/10.1063/1.4819264
  5. Neese, F.
     Software update: the ORCA program system, version 4.0
     WIRES Comput. Molec. Sci. 2018 8(1), 1-6
     doi.org/10.1002/wcms.1327
  6. Neese, F.; Wennmohs, F.; Becker, U.; Riplinger, C.
     The ORCA quantum chemistry program package
     J. Chem. Phys. 2020 152(22), 224108
     doi.org/10.1063/5.0004608
  7. Neese, F.
     Software update: The ORCA program system—Version 5.0
     WIRES Comput. Molec. Sci. 2022 12(1), e1606
     doi.org/10.1002/wcms.1606

List of optional additional citations

  1. Neese, F.
     Approximate second-order SCF convergence for spin unrestricted wavefunctions
     Chem. Phys. Lett. 2000 325(1-3), 93-98
     doi.org/10.1016/s0009-2614(00)00662-x

Timings for individual modules:

Sum of individual times          ...     3345.661 sec (=  55.761 min)
Startup calculation              ...       39.857 sec (=   0.664 min)   1.2 %
SCF iterations                   ...      784.238 sec (=  13.071 min)  23.4 %
Property integrals               ...      529.928 sec (=   8.832 min)  15.8 %
SCF Response                     ...     1085.649 sec (=  18.094 min)  32.4 %
Property calculations            ...      578.629 sec (=   9.644 min)  17.3 %
SCF Gradient evaluation          ...      326.744 sec (=   5.446 min)   9.8 %
Geometry relaxation              ...        0.616 sec (=   0.010 min)   0.0 %
                             ****ORCA TERMINATED NORMALLY****
TOTAL RUN TIME: 0 days 0 hours 55 minutes 50 seconds 336 msec
