
                                 *****************
                                 * O   R   C   A *
                                 *****************

                                            #,                                       
                                            ###                                      
                                            ####                                     
                                            #####                                    
                                            ######                                   
                                           ########,                                 
                                     ,,################,,,,,                         
                               ,,#################################,,                 
                          ,,##########################################,,             
                       ,#########################################, ''#####,          
                    ,#############################################,,   '####,        
                  ,##################################################,,,,####,       
                ,###########''''           ''''###############################       
              ,#####''   ,,,,##########,,,,          '''####'''          '####       
            ,##' ,,,,###########################,,,                        '##       
           ' ,,###''''                  '''############,,,                           
         ,,##''                                '''############,,,,        ,,,,,,###''
      ,#''                                            '''#######################'''  
     '                                                          ''''####''''         
             ,#######,   #######,   ,#######,      ##                                
            ,#'     '#,  ##    ##  ,#'     '#,    #''#        ,####,    ,#,          
            ##       ##  ##   ,#'  ##            #'  '#       #'       ,# #          
            ##       ##  #######   ##           ,######,      #####,      #          
            '#,     ,#'  ##    ##  '#,     ,#' ,#      #,     #,   #      #          
             '#######'   ##     ##  '#######'  #'      '#     '####' #    #          



                #########################################################
                #                        -***-                          #
                #          Department of theory and spectroscopy        #
                #                                                       #
                #                      Frank Neese                      #
                #                                                       #
                #     Directorship, Architecture, Infrastructure        #
                #                    SHARK, DRIVERS                     #
                #        Core code/Algorithms in most modules           #
                #                                                       #
                #        Max Planck Institute fuer Kohlenforschung      #
                #                Kaiser Wilhelm Platz 1                 #
                #                 D-45470 Muelheim/Ruhr                 #
                #                      Germany                          #
                #                                                       #
                #                  All rights reserved                  #
                #                        -***-                          #
                #########################################################


                         Program Version 6.1.1  -  RELEASE   -


 With contributions from (in alphabetic order):
[Max-Planck-Institut fuer Kohlenforschung]                               
  Daniel Aravena         : Magnetic Suceptibility                        
  Michael Atanasov       : Ab Initio Ligand Field Theory (pilot matlab implementation)
  Alexander A. Auer      : GIAO ZORA, VPT2 properties, NMR spectrum      
  Ute Becker             : All parallelization in ORCA, NUMFREQ, NUMCALC 
  Giovanni Bistoni       : ED, misc. LED, open-shell LED, HFLD           
  Dmytro Bykov           : pre 5.0 version of the SCF Hessian            
  Marcos Casanova-Páez   : Triplet and SCS-CIS(D). UHF-(DLPNO)-IP/EA/STEOM-CCSD. UHF-CVS-IP/STEOM-CCSD   
  Vijay G. Chilkuri      : MRCI spin determinant printing, contributions to CSF-ICE 
  Pauline Colinet        : FMM embedding                                 
  Dipayan Datta          : RHF DLPNO-CCSD density                        
  Achintya Kumar Dutta   : EOM-CC, STEOM-CC                              
  Nicolas Foglia         : Exact transition moments, OPA infrastructure, MCD improvements    
  Dmitry Ganyushin       : Spin-Orbit,Spin-Spin,Magnetic field MRCI      
  Miquel Garcia-Rates    : C-PCM and meta-GGA Hessian, CCSD/C-PCM, Gaussian charge scheme 
  Tiago L. C. Gouveia    : GS-ROHF, GS-ROCIS                             
  Yang Guo               : DLPNO-NEVPT2, F12-NEVPT2, CIM, IAO-localization        
  Andreas Hansen         : Spin unrestricted coupled pair/coupled cluster methods 
  Ingolf Harden          : AUTO-CI MPn and infrastructure                
  Benjamin Helmich-Paris : MC-RPA, TRAH-(SCF,CASSCF), AVAS, COSX integrals, SCF dyn. polar., MC-PDFT, srDFT 
  Lee Huntington         : MR-EOM, pCC                                   
  Robert Izsak           : Overlap fitted RIJCOSX, COSX-SCS-MP3, EOM     
  Riya Kayal             : Wick's Theorem for AUTO-CI, AUTO-CI UHF-CCSDT 
  Emily Kempfer          : AUTO-CI RHF CISDT and CCSDT, approximate NEVPT4
  Christian Kollmar      : KDIIS, OOCD, Brueckner-CCSD(T), CCSD density, CASPT2, CASPT2-K, improved NEVPT2 
  Axel Koslowski         : Symmetry handling                             
  Simone Kossmann        : meta-GGA functionals, TD-DFT gradient, OOMP2, (MP2 Hessian; deprecated post 5.0) 
  Lucas Lang             : DCDCAS, Hyperfine gauge corrections, ICE-SOC+SSC
  Marvin Lechner         : AUTO-CI (C++ implementation), FIC-MRCC        
  Spencer Leger          : CASSCF response                               
  Dagmar Lenk            : GEPOL surface, SMD, ORCA-2-JSON               
  Dimitrios Liakos       : Extrapolation schemes; Compound Job, Property file
  Dimitrios Manganas     : Further ROCIS development; embedding schemes. LFT, Crystal Embedding 
  Dimitrios Pantazis     : SARC Basis sets                               
  Anastasios Papadopoulos: AUTO-CI, single reference methods and gradients 
  Taras Petrenko         : pre 6.0 DFT Hessian and TD-DFT gradient,  ECA, NRVS 
  Petra Pikulova         : Analytic Raman intensities                    
  Peter Pinski           : DLPNO-MP2, DLPNO-MP2 Gradient                 
  Shashank Vittal Rao    : ES-AILFT, MagRelax                            
  Christoph Reimann      : Effective Core Potentials                     
  Marius Retegan         : Local ZFS, SOC                                
  Christoph Riplinger    : Optimizer, TS searches, QM/MM, DLPNO-CCSD(T), (RO)-DLPNO pert. Triples 
  Michael Roemelt        : Original ROCIS implementation, recursive CI coupling coefficients
  Masaaki Saitow         : Open-shell DLPNO-CCSD energy and density      
  Barbara Sandhoefer     : DKH picture change effects                    
  Yorick L. A. Schmerwitz: GMF and freeze-and-release deltaSCF, NEB S-IDPP initial path                    
  Kantharuban Sivalingam : CASSCF convergence/infrastructure, NEVPT2, NEVPT3, NEVPT4(SD), FIC-MRCI and CEPA variants
  Bernardo de Souza      : ESD, SOC TD-DFT                               
  Georgi L. Stoychev     : AutoAux, RI-MP2 NMR, DLPNO-MP2 response, X2C  
  Van Anh Tran           : RI-MP2 g-tensors                              
  Willem Van den Heuvel  : Paramagnetic NMR                              
  Zikuan Wang            : NOTCH, Electric field optimization            
  Frank Wennmohs         : Technical directorship and infrastructure     
  Hang Xu                : AUTO-CI-Response properties                   
                                                                         
[FACCTs GmbH]                                                            
  Markus Bursch, Nicolas Foglia, Miquel Garcia-Rates, Ingolf Harden, Hagen Neugebauer, Anastasios Papadopoulos, 
  Christoph Riplinger, Bernardo de Souza, Georgi L. Stoychev                                                    
                                                                 
  APM, various basis sets, CI-OPT, improved COSX, DLPNO-Multilevel,           
  DOCKER, DRACO, updates on ESD, Fragmentator, GOAT, IRC, LR-CPCM, L-BFGS, MBIS, meta-GGA TD-DFT gradient, ML-optimized integration grids, 
  MM, NACMEs, nearIR, NEB, NEB-TS, NL-DFT gradient (VV10), 2- and 3-layer-ONIOM, interface openCOSMO-RS, QMMM,   
  Crystal-QMMM, RESP, rigid body optimization, SF, symmetry and pop. for TD-DFT, various functionals, SOLVATOR                                   
                                                                         
[Other institutions]                                                     
  V. Asgeirsson          : NEB                                           
  Christoph Bannwarth    : sTDA-DFT, sTD-DFT, PBEh-3c, B97-3c, D3        
  Giovanni Bistoni       : ETS/NOCV, ADLD/ADEX, COVALED                  
  Martin Brehm           : Molecular dynamics                            
  Ronald Cardenas        : ETS/NOCV                                      
  Martina Colucci        : COVALED                                       
  Sebastian Ehlert       : rSCAN, r2SCAN, r2SCAN-3c, D4, dhf basis sets  
  Marvin Friede          : D4 for Fr, Ra, Ac-Lr                          
  Lars Goerigk           : TD-DFT with DH, B97 family of functionals     
  Stefan Grimme          : VdW corrections, initial TS optimization, DFT functionals, gCP, sTDA/sTD-DF 
  Waldemar Hujo          : DFT-NL                                        
  H. Jonsson             : NEB                                           
  Holger Kruse           : gCP                                           
  Marcel Mueller         : wB97X-3c, vDZP basis set                      
  Hagen Neugebauer       : wr2SCAN, Native XTB                           
  Gianluca Regni         : ADLD/ADEX                                     
  Tobias Risthaus        : pre 6.0 range-separated hybrid DFT and stability analysis
  Lukas Wittmann         : regularized MP2, r2SCAN double-hybrids, wr2SCAN        
                                                                         
We gratefully acknowledge several colleagues who have allowed us to      
interface, adapt or use parts of their codes:                            
  Ed Valeev, F. Pavosevic, A. Kumar             : LibInt (2-el integral package), F12 methods 
  Garnet Chan, S. Sharma, J. Yang, R. Olivares  : DMRG                   
  Ulf Ekstrom                                   : XCFun DFT Library      
  Mihaly Kallay                                 : mrcc  (arbitrary order and MRCC methods)
  Frank Weinhold                                : gennbo (NPA and NBO analysis)           
  Simon Mueller                                 : openCOSMO-RS                            
  Christopher J. Cramer and Donald G. Truhlar   : smd solvation model                     
  S Lehtola, MJT Oliveira, MAL Marques          : LibXC Library                           
  Liviu Ungur et al                             : ANISO software                          


 Your calculation uses the libint2 library for the computation of 2-el integrals
 For citations please refer to: http://libint.valeyev.net

 Your ORCA version has been built with support for libXC version: 7.0.0
 For citations please refer to: https://libxc.gitlab.io

 This ORCA versions uses:
   CBLAS   interface :  Fast vector & matrix operations
   LAPACKE interface :  Fast linear algebra routines
   Shared memory     :  Shared parallel matrices


  ***********************************
  * Starting time: Thu Apr 30 16:41:56 2026
  * Host name:     AHMET
  * Process ID:    14272
  * Working dir.:  C:\orca_tests\DFT_FINAL_PROPERTIES\055\02_sp_charge
  ***********************************

NOTE: MaxCore=3000 MB was set to SCF,MP2,MDCI,CIPSI,MRCI,RASCI and CIS
      => If you want to overwrite this, your respective input block should be placed after the MaxCore statement


***************************************
The coordinates will be read from file: geom.xyz
***************************************


Your calculation utilizes the atom-pairwise dispersion correction
with the Becke-Johnson damping scheme (D3BJ)


================================================================================

----- Orbital basis set information -----
Your calculation utilizes the basis: def2-SVP
   F. Weigend and R. Ahlrichs, Phys. Chem. Chem. Phys. 7, 3297 (2005).

----- AuxJ basis set information -----
Your calculation utilizes the auxiliary basis: def2/J
   H-Rn: F. Weigend, Phys. Chem. Chem. Phys. 8, 1057 (2006).
   Fr-Lr: K. Eichkorn, F. Weigend, O. Treutler, R. Ahlrichs; Theor. Chem. Acc. 97, 119 (1997).

================================================================================
                                        WARNINGS
                       Please study these warnings very carefully!
================================================================================


WARNING: MOInp is set but Guess=PModel. MOInp will be ignored!
         To read the initial guess from a file you must also specify
         'MORead' in the simple input or 'Guess MORead' in the %scf block


================================================================================
                                       INPUT FILE
================================================================================
NAME = CMR_GOLD_055_sp_charge_clean.inp
|  1> ! B3LYP D3BJ def2-SVP CPCM(Water) TightSCF RIJCOSX def2/J SP KeepDens
|  2> 
|  3> %maxcore 3000
|  4> 
|  5> %pal
|  6>   nprocs 8
|  7> end
|  8> 
|  9> %moinp "geom.gbw"
| 10> 
| 11> %output
| 12>   Print[P_Mulliken] 1
| 13>   Print[P_Loewdin] 1
| 14> end
| 15> 
| 16> * xyzfile 0 1 geom.xyz
| 17> 
| 18>                          ****END OF INPUT****
================================================================================

                       ****************************
                       * Single Point Calculation *
                       ****************************

---------------------------------
CARTESIAN COORDINATES (ANGSTROEM)
---------------------------------
  O     -3.349454    1.805183   -0.146794
  C     -2.421635    1.027475   -0.107887
  O     -1.147103    1.559649   -0.049818
  C     -0.016109    0.800031    0.000183
  C     -0.090215   -0.608522   -0.006332
  C      1.109277   -1.348301    0.047730
  C      2.336111   -0.696904    0.106049
  C      2.384344    0.708661    0.111033
  C      1.213299    1.462783    0.058354
  C     -1.401140   -1.204502   -0.068067
  C     -2.511609   -0.426556   -0.116371
  H      1.053719   -2.439739    0.043302
  H      3.262047   -1.274509    0.148193
  H      3.349054    1.219733    0.156915
  H      1.231660    2.554219    0.061441
  H     -1.483879   -2.294862   -0.074709
  H     -3.518368   -0.843841   -0.163223

----------------------------
CARTESIAN COORDINATES (A.U.)
----------------------------
  NO LB      ZA    FRAG     MASS         X           Y           Z
   0 O     8.0000    0    15.999   -6.329550    3.411302   -0.277400
   1 C     6.0000    0    12.011   -4.576226    1.941646   -0.203877
   2 O     8.0000    0    15.999   -2.167710    2.947310   -0.094142
   3 C     6.0000    0    12.011   -0.030442    1.511839    0.000345
   4 C     6.0000    0    12.011   -0.170482   -1.149940   -0.011967
   5 C     6.0000    0    12.011    2.096229   -2.547919    0.090197
   6 C     6.0000    0    12.011    4.414610   -1.316958    0.200404
   7 C     6.0000    0    12.011    4.505758    1.339175    0.209822
   8 C     6.0000    0    12.011    2.292802    2.764259    0.110274
   9 C     6.0000    0    12.011   -2.647772   -2.276179   -0.128627
  10 C     6.0000    0    12.011   -4.746253   -0.806073   -0.219910
  11 H     1.0000    0     1.008    1.991240   -4.610438    0.081830
  12 H     1.0000    0     1.008    6.164376   -2.408473    0.280044
  13 H     1.0000    0     1.008    6.328795    2.304961    0.296527
  14 H     1.0000    0     1.008    2.327500    4.826775    0.116106
  15 H     1.0000    0     1.008   -2.804125   -4.336661   -0.141179
  16 H     1.0000    0     1.008   -6.648751   -1.594628   -0.308447

--------------------------------
INTERNAL COORDINATES (ANGSTROEM)
--------------------------------
 O      0   0   0     0.000000000000     0.00000000     0.00000000
 C      1   0   0     1.211277347976     0.00000000     0.00000000
 O      2   1   0     1.382394031205   117.41275049     0.00000000
 C      3   2   1     1.363329007977   123.49741604   179.89782244
 C      4   3   2     1.410515906093   120.84045657     0.06749435
 C      5   4   3     1.410310619810   118.61739681   180.04104386
 C      6   5   4     1.390266464864   120.42226167     0.00000000
 C      7   6   5     1.406400992485   119.91237360     0.00000000
 C      8   7   6     1.393851868686   120.78150929     0.00000000
 C      5   4   3     1.441363313677   117.44453416     0.00000000
 C     10   5   4     1.356714550749   120.58784557   359.94281991
 H      6   5   4     1.092860220918   118.71640189   179.96810527
 H      7   6   5     1.092136586571   120.13071286   179.97425109
 H      8   7   6     1.092687048828   119.85917962   179.99843395
 H      9   8   7     1.091594998019   121.78393566   179.99386981
 H     10   5   4     1.093514805050   118.77470517   179.97436330
 H     11  10   5     1.090818372831   122.52048699   180.02693542

---------------------------
INTERNAL COORDINATES (A.U.)
---------------------------
 O      0   0   0     0.000000000000     0.00000000     0.00000000
 C      1   0   0     2.288982459898     0.00000000     0.00000000
 O      2   1   0     2.612346128145   117.41275049     0.00000000
 C      3   2   1     2.576318455506   123.49741604   179.89782244
 C      4   3   2     2.665488770056   120.84045657     0.06749435
 C      5   4   3     2.665100835201   118.61739681   180.04104386
 C      6   5   4     2.627222871768   120.42226167     0.00000000
 C      7   6   5     2.657712710271   119.91237360     0.00000000
 C      8   7   6     2.633998303072   120.78150929     0.00000000
 C      5   4   3     2.723781922330   117.44453416     0.00000000
 C     10   5   4     2.563818942822   120.58784557   359.94281991
 H      6   5   4     2.065206520192   118.71640189   179.96810527
 H      7   6   5     2.063839049455   120.13071286   179.97425109
 H      8   7   6     2.064879272367   119.85917962   179.99843395
 H      9   8   7     2.062815595414   121.78393566   179.99386981
 H     10   5   4     2.066443504933   118.77470517   179.97436330
 H     11  10   5     2.061347986500   122.52048699   180.02693542

---------------------
BASIS SET INFORMATION
---------------------
There are 3 groups of distinct atoms

 Group   1 Type O   : 7s4p1d contracted to 3s2p1d pattern {511/31/1}
 Group   2 Type C   : 7s4p1d contracted to 3s2p1d pattern {511/31/1}
 Group   3 Type H   : 4s1p contracted to 2s1p pattern {31/1}

Atom   0O    basis set group =>   1
Atom   1C    basis set group =>   2
Atom   2O    basis set group =>   1
Atom   3C    basis set group =>   2
Atom   4C    basis set group =>   2
Atom   5C    basis set group =>   2
Atom   6C    basis set group =>   2
Atom   7C    basis set group =>   2
Atom   8C    basis set group =>   2
Atom   9C    basis set group =>   2
Atom  10C    basis set group =>   2
Atom  11H    basis set group =>   3
Atom  12H    basis set group =>   3
Atom  13H    basis set group =>   3
Atom  14H    basis set group =>   3
Atom  15H    basis set group =>   3
Atom  16H    basis set group =>   3
---------------------------------
AUXILIARY/J BASIS SET INFORMATION
---------------------------------
There are 3 groups of distinct atoms

 Group   1 Type O   : 12s5p4d2f1g contracted to 6s4p3d1f1g pattern {711111/2111/211/2/1}
 Group   2 Type C   : 12s5p4d2f1g contracted to 6s4p3d1f1g pattern {711111/2111/211/2/1}
 Group   3 Type H   : 5s2p1d contracted to 3s1p1d pattern {311/2/1}

Atom   0O    basis set group =>   1
Atom   1C    basis set group =>   2
Atom   2O    basis set group =>   1
Atom   3C    basis set group =>   2
Atom   4C    basis set group =>   2
Atom   5C    basis set group =>   2
Atom   6C    basis set group =>   2
Atom   7C    basis set group =>   2
Atom   8C    basis set group =>   2
Atom   9C    basis set group =>   2
Atom  10C    basis set group =>   2
Atom  11H    basis set group =>   3
Atom  12H    basis set group =>   3
Atom  13H    basis set group =>   3
Atom  14H    basis set group =>   3
Atom  15H    basis set group =>   3
Atom  16H    basis set group =>   3


           ************************************************************
           *        Program running with 8 parallel MPI-processes     *
           *              working on a common directory               *
           ************************************************************
------------------------------------------------------------------------------
                             ORCA STARTUP CALCULATIONS
                           -- RI-GTO INTEGRALS CHOSEN --
------------------------------------------------------------------------------
------------------------------------------------------------------------------
                   ___                                                        
                  /   \      - P O W E R E D   B Y -                         
                 /     \                                                     
                 |  |  |   _    _      __       _____    __    __             
                 |  |  |  | |  | |    /  \     |  _  \  |  |  /  |          
                  \  \/   | |  | |   /    \    | | | |  |  | /  /          
                 / \  \   | |__| |  /  /\  \   | |_| |  |  |/  /          
                |  |  |   |  __  | /  /__\  \  |    /   |      \           
                |  |  |   | |  | | |   __   |  |    \   |  |\   \          
                \     /   | |  | | |  |  |  |  | |\  \  |  | \   \       
                 \___/    |_|  |_| |__|  |__|  |_| \__\ |__|  \__/        
                                                                              
                      - O R C A' S   B I G   F R I E N D -                    
                                      &                                       
                       - I N T E G R A L  F E E D E R -                       
                                                                              
 v1 FN, 2020, v2 2021, v3 2022-2024                                           
------------------------------------------------------------------------------


----------------------
SHARK INTEGRAL PACKAGE
----------------------

Number of atoms                             ...     17
Number of basis functions                   ...    184
Number of shells                            ...     84
Maximum angular momentum                    ...      2
Integral batch strategy                     ... SHARK/LIBINT Hybrid
RI-J (if used) integral strategy            ... SPLIT-RIJ (Revised 2003 algorithm where possible)
Printlevel                                  ...      1
Contraction scheme used                     ... SEGMENTED contraction
Prescreening option                         ... SCHWARTZ
   Thresh                                   ... 2.500e-11
   Tcut                                     ... 2.500e-12
   Tpresel                                  ... 2.500e-12 
Coulomb Range Separation                    ... NOT USED
Exchange Range Separation                   ... NOT USED
Multipole approximations                    ... NOT USED
Finite Nucleus Model                        ... NOT USED
CABS basis                                  ... NOT available
Auxiliary Coulomb fitting basis             ... AVAILABLE
   # of basis functions in Aux-J            ...    605
   # of shells in Aux-J                     ...    195
   Maximum angular momentum in Aux-J        ...      4
Auxiliary J/K fitting basis                 ... NOT available
Auxiliary Correlation fitting basis         ... NOT available
Auxiliary 'external' fitting basis          ... NOT available

Checking pre-screening integrals            ... done (  0.0 sec) Dimension = 84
   => SHARK Basis and OBASIS are compatible. Storing Pre-screening
Shell pair information
Shell pair cut-off parameter TPreSel        ...   2.5e-12
Total number of shell pairs                 ...      3570
Shell pairs after pre-screening             ...      3234
Total number of primitive shell pairs       ...     13364
Primitive shell pairs kept                  ...      8591
          la=0 lb=0:    929 shell pairs
          la=1 lb=0:   1151 shell pairs
          la=1 lb=1:    377 shell pairs
          la=2 lb=0:    436 shell pairs
          la=2 lb=1:    282 shell pairs
          la=2 lb=2:     59 shell pairs

Checking whether 4 symmetric matrices of dimension 184 fit in memory
:Max Core in MB      =   3000.00
 MB in use           =      6.67
 MB left             =   2993.33
 MB needed           =      0.52
 Data fit in memory  = YES
Calculating RI/J V-Matrix + Cholesky decomp.... done (  0.0 sec)
Calculating Nuclear repulsion               ... done (  0.0 sec) ENN=    552.379071839304 Eh

Diagonalization of the overlap matrix:
Smallest eigenvalue                        ... 2.582e-04
Time for diagonalization                   ...    0.002 sec
Threshold for overlap eigenvalues          ... 1.000e-07
Number of eigenvalues below threshold      ... 0
Time for construction of square roots      ...    0.002 sec
Total time needed                          ...    0.005 sec

-------------------
DFT GRID GENERATION
-------------------

General Integration Accuracy     IntAcc      ... 4.388
Radial Grid Type                 RadialGrid  ... OptM3 with GC (2021)
Angular Grid (max. ang.)         AngularGrid ... 4 (Lebedev-302)
Angular grid pruning method      GridPruning ... 4 (adaptive)
Weight generation scheme         WeightScheme... mBecke (2022)
Basis function cutoff            BFCut       ... 1.0000e-11
Integration weight cutoff        WCut        ... 1.0000e-14
Partially contracted basis set               ... off
Rotationally invariant grid construction     ... off
Angular grids for H and He will be reduced by one unit

Total number of grid points                  ...    85398
Total number of batches                      ...     1344
Average number of points per batch           ...       63
Average number of grid points per atom       ...     5023

--------------------
COSX GRID GENERATION
--------------------

GRIDX 1
-------
General Integration Accuracy     IntAcc      ... 3.816
Radial Grid Type                 RadialGrid  ... OptM3 with GC (2021)
Angular Grid (max. ang.)         AngularGrid ... 1 (Lebedev-50)
Angular grid pruning method      GridPruning ... 4 (adaptive)
Weight generation scheme         WeightScheme... mBecke (2022)
Basis function cutoff            BFCut       ... 1.0000e-11
Integration weight cutoff        WCut        ... 1.0000e-14
Partially contracted basis set               ... on
Rotationally invariant grid construction     ... off
Angular grids for H and He will be reduced by one unit

Total number of grid points                  ...    10873
Total number of batches                      ...       92
Average number of points per batch           ...      118
Average number of grid points per atom       ...      640
UseSFitting                                  ... on

GRIDX 2
-------
General Integration Accuracy     IntAcc      ... 4.020
Radial Grid Type                 RadialGrid  ... OptM3 with GC (2021)
Angular Grid (max. ang.)         AngularGrid ... 2 (Lebedev-110)
Angular grid pruning method      GridPruning ... 4 (adaptive)
Weight generation scheme         WeightScheme... mBecke (2022)
Basis function cutoff            BFCut       ... 1.0000e-11
Integration weight cutoff        WCut        ... 1.0000e-14
Partially contracted basis set               ... on
Rotationally invariant grid construction     ... off
Angular grids for H and He will be reduced by one unit

Total number of grid points                  ...    24261
Total number of batches                      ...      198
Average number of points per batch           ...      122
Average number of grid points per atom       ...     1427
UseSFitting                                  ... on

GRIDX 3
-------
General Integration Accuracy     IntAcc      ... 4.338
Radial Grid Type                 RadialGrid  ... OptM3 with GC (2021)
Angular Grid (max. ang.)         AngularGrid ... 3 (Lebedev-194)
Angular grid pruning method      GridPruning ... 4 (adaptive)
Weight generation scheme         WeightScheme... mBecke (2022)
Basis function cutoff            BFCut       ... 1.0000e-11
Integration weight cutoff        WCut        ... 1.0000e-14
Partially contracted basis set               ... on
Rotationally invariant grid construction     ... off
Angular grids for H and He will be reduced by one unit

Total number of grid points                  ...    53501
Total number of batches                      ...      429
Average number of points per batch           ...      124
Average number of grid points per atom       ...     3147
UseSFitting                                  ... on
Grids setup in   0.6 sec
Initializing property integral containers    ... done (  0.0 sec)

SHARK setup successfully completed in   0.7 seconds

Maximum memory used throughout the entire STARTUP-calculation: 22.5 MB


           ************************************************************
           *        Program running with 8 parallel MPI-processes     *
           *              working on a common directory               *
           ************************************************************
-------------------------------------------------------------------------------
                                 ORCA GUESS
                   Start orbitals & Density for SCF / CASSCF
-------------------------------------------------------------------------------

------------
SCF SETTINGS
------------
Hamiltonian:
 Density Functional     Method          .... DFT(GTOs)
 Exchange Functional    Exchange        .... B88
   X-Alpha parameter    XAlpha          ....  0.666667
   Becke's b parameter  XBeta           ....  0.004200
 Correlation Functional Correlation     .... LYP
 LDA part of GGA corr.  LDAOpt          .... VWN-5
 Gradients option       PostSCFGGA      .... off
 Hybrid DFT is turned on
   Fraction HF Exchange ScalHFX         ....  0.200000
   Scaling of DF-GGA-X  ScalDFX         ....  0.720000
   Scaling of DF-GGA-C  ScalDFC         ....  0.810000
   Scaling of DF-LDA-C  ScalLDAC        ....  1.000000
   Perturbative correction              ....  0.000000
   NL short-range parameter             ....  4.800000
 RI-approximation to the Coulomb term is turned on
   Number of AuxJ basis functions       .... 605
   RIJ-COSX (HFX calculated with COS-X)).... on


General Settings:
 Integral files         IntName         .... CMR_GOLD_055_sp_charge_clean
 Hartree-Fock type      HFTyp           .... RHF
 Total Charge           Charge          ....    0
 Multiplicity           Mult            ....    1
 Number of Electrons    NEL             ....   76
 Basis Dimension        Dim             ....  184
 Nuclear Repulsion      ENuc            ....    552.3790718393 Eh

Convergence Acceleration:
 AO-DIIS                CNVDIIS         .... on
   Start iteration      DIISMaxIt       ....    12
   Startup error        DIISStart       ....  0.200000
   # of expansion vecs  DIISMaxEq       ....     5
   Bias factor          DIISBfac        ....   1.050
   Max. coefficient     DIISMaxC        ....  10.000
 MO-DIIS                CNVKDIIS        .... off
 Trust-Rad. Augm. Hess. CNVTRAH         .... auto
   Auto Start mean grad. ratio tolernc. ....  1.125000
   Auto Start start iteration           ....    50
   Auto Start num. interpolation iter.  ....    10
   Max. Number of Micro iterations      ....    24
   Max. Number of Macro iterations      .... Maxiter - #DIIS iter
   Number of Davidson start vectors     ....     2
   Converg. threshold    (grad. norm)   ....   1.000e-05
   Grad. Scal. Fac. for Micro threshold ....   0.100
   Minimum threshold for Micro iter.    ....   1.000e-02
   NR start threshold (gradient norm)   ....   1.000e-04
   Initial trust radius                 ....   0.400
   Minimum AH scaling param. (alpha)    ....   1.000
   Maximum AH scaling param. (alpha)    .... 1000.000
   Quad. conv. algorithm                .... NR
   White noise on init. David. guess    .... on
   Maximum white noise                  ....   0.010
   Pseudo random numbers                .... off
   Inactive MOs                         .... canonical
   Orbital update algorithm             .... Taylor
   Preconditioner                       .... Diag
   Full preconditioner red. dimension   ....   250
 SOSCF                 CNVSOSCF           .... on
   Start iteration     SOSCFMaxIt         ....   150
   Startup grad/error  SOSCFStart         ....  0.003300
   Hessian update      SOSCFHessUp        .... L-BFGS
   Autom. constraints  SOSCFAutoConstrain .... off
 Level Shifting         CNVShift        .... on
   Level shift para.    LevelShift      ....    0.2500
   Turn off err/grad.   ShiftErr        ....    0.0010
 Zerner damping         CNVZerner       .... off
 Static damping         CNVDamp         .... on
   Fraction old density DampFac         ....    0.7000
   Max. Damping (<1)    DampMax         ....    0.9800
   Min. Damping (>=0)   DampMin         ....    0.0000
   Turn off err/grad.   DampErr         ....    0.1000

SCF Procedure:
 Maximum # iterations   MaxIter         ....   125
 SCF integral mode      SCFMode         .... Direct
   Integral package                     .... SHARK and LIBINT hybrid scheme
 Reset frequency        DirectResetFreq ....    20
 Integral Threshold     Thresh          ....  2.500e-11 Eh
 Primitive CutOff       TCut            ....  2.500e-12 Eh

Convergence Tolerance:
 Convergence Check Mode ConvCheckMode   .... Total+1el-Energy
 Convergence forced     ConvForced      .... 0
 Energy Change          TolE            ....  1.000e-08 Eh
 1-El. energy change                    ....  1.000e-05 Eh
 Orbital Gradient       TolG            ....  1.000e-05
 Orbital Rotation angle TolX            ....  1.000e-05
 DIIS Error             TolErr          ....  5.000e-07

------------------------------
INITIAL GUESS: MODEL POTENTIAL
------------------------------
Loading Hartree-Fock densities                     ... done
Calculating cut-offs                               ... done
Initializing the effective Hamiltonian             ... done
Setting up the integral package (SHARK)            ... done
Starting the Coulomb interaction                   ... done (   0.0 sec)
Making the grid                                    ... done (   0.1 sec)
Mapping shells                                     ... done
Starting the XC term evaluation                    ... done (   0.0 sec)
  promolecular density results
     # of electrons  =     75.993880700
     EX              =    -64.444390776
     EC              =     -2.609198158
     EX+EC           =    -67.053588933
Transforming the Hamiltonian                       ... done (   0.0 sec)
Diagonalizing the Hamiltonian                      ... done (   0.0 sec)
Back transforming the eigenvectors                 ... done (   0.0 sec)
Now organizing SCF variables                       ... done
                      ------------------
                      INITIAL GUESS DONE (   0.2 sec)
                      ------------------
             **** ENERGY FILE WAS UPDATED (CMR_GOLD_055_sp_charge_clean.en.tmp) ****
Finished Guess after   0.2 sec
Maximum memory used throughout the entire GUESS-calculation: 9.5 MB


           ************************************************************
           *        Program running with 8 parallel MPI-processes     *
           *              working on a common directory               *
           ************************************************************

-------------------------------------------------------------------------------------------
                                      ORCA LEAN-SCF
                              memory conserving SCF solver
-------------------------------------------------------------------------------------------

--------------------
CPCM SOLVATION MODEL
--------------------
CPCM parameters:
  Epsilon                                         ...      80.1510
  Refrac                                          ...       1.3328
  Rsolv                                           ...       1.3000
  Surface type                                    ... GAUSSIAN VDW
  Discretization scheme                           ... Constant charge density
    Threshold for H atoms                         ...       5.0000 (charges/Ang^2)
    Threshold for non-H atoms                     ...       5.0000 (charges/Ang^2)
  Epsilon function type                           ...         CPCM
Solvent:                                          ... WATER
Radii:
  Scheme                                          ... Element-dependent radii
  Radius for O  used is    3.4469 Bohr (=   1.8240 Ang.)
  Radius for C  used is    3.8550 Bohr (=   2.0400 Ang.)
  Radius for H  used is    2.4944 Bohr (=   1.3200 Ang.)
Calculating surface                               ...        done! (  0.0s)
Cavity surface points                             ...         1716
Cavity Volume                                     ...    1170.3886
Cavity Surface-area                               ...     635.7795
Calculating surface distance matrix               ...        done! (  0.0s)
Performing Cholesky decomposition & store         ...        done! (  0.0s)
Overall time for CPCM initialization              ...                 0.1s

----------------------------------------D-I-I-S--------------------------------------------
Iteration    Energy (Eh)           Delta-E    RMSDP     MaxDP     DIISErr   Damp  Time(sec)
-------------------------------------------------------------------------------------------
               ***  Starting incremental Fock matrix formation  ***
    1    -496.1568936484640062     0.00e+00  1.09e-02  1.02e-01  2.75e-01  0.700   0.6
    2    -496.2677630797157917    -1.11e-01  7.07e-03  6.36e-02  1.07e-01  0.700   0.4
                               ***Turning on AO-DIIS***
    3    -496.3102650295694502    -4.25e-02  3.14e-03  1.72e-02  3.69e-02  0.700   0.4
    4    -496.3368601239338886    -2.66e-02  5.90e-03  2.96e-02  1.90e-02  0.000   0.4
    5    -496.3951524707807721    -5.83e-02  8.45e-04  6.11e-03  6.09e-03  0.000   0.4
                              *** Initializing SOSCF ***
---------------------------------------S-O-S-C-F--------------------------------------
Iteration    Energy (Eh)           Delta-E    RMSDP     MaxDP     MaxGrad    Time(sec)
--------------------------------------------------------------------------------------
    6    -496.3955236315297270    -3.71e-04  2.70e-04  1.69e-03  1.14e-03     0.4
               *** Restarting incremental Fock matrix formation ***
    7    -496.3955825321237398    -5.89e-05  1.93e-04  1.17e-03  2.03e-04     0.6
    8    -496.3955827532262219    -2.21e-07  7.56e-05  6.05e-04  2.44e-04     0.5
    9    -496.3955858992579806    -3.15e-06  4.39e-05  2.83e-04  5.94e-05     0.5
   10    -496.3955858607997698     3.85e-08  2.18e-05  1.68e-04  6.52e-05     0.6
   11    -496.3955861089774544    -2.48e-07  1.24e-05  8.67e-05  1.88e-05     0.5
   12    -496.3955861005530323     8.42e-09  6.90e-06  5.01e-05  2.20e-05     0.5
                 **** Energy Check signals convergence ****

               *****************************************************
               *                     SUCCESS                       *
               *           SCF CONVERGED AFTER  12 CYCLES          *
               *****************************************************

Recomputing exchange energy using gridx3       ... done (    0.618 sec)
Old exchange energy                            :    -13.026593874 Eh
New exchange energy                            :    -13.026639116 Eh
Exchange energy change after final integration :     -0.000045242 Eh
Total energy after final integration           :   -496.395631367 Eh
             **** ENERGY FILE WAS UPDATED (CMR_GOLD_055_sp_charge_clean.en.tmp) ****

----------------
TOTAL SCF ENERGY
----------------

Total Energy       :       -496.39563136663861 Eh          -13507.61184 eV

Components:
Nuclear Repulsion  :        552.37907183930417 Eh           15030.99871 eV
Electronic Energy  :      -1048.75977674682417 Eh          -28538.20438 eV
One Electron Energy:      -1768.41855544920031 Eh          -48121.11532 eV
Two Electron Energy:        719.65877870237625 Eh           19582.91094 eV
CPCM Dielectric    :         -0.01488121673033 Eh              -0.40494 eV

Virial components:
Potential Energy   :       -988.11753261998547 Eh          -26888.04502 eV
Kinetic Energy     :        491.72190125334691 Eh           13380.43318 eV
Virial Ratio       :          2.00950482396936

DFT components:
N(Alpha)           :       38.000016360449 electrons
N(Beta)            :       38.000016360449 electrons
N(Total)           :       76.000032720899 electrons
E(X)               :      -51.802524622552 Eh       
E(C)               :       -3.074671508028 Eh       
E(XC)              :      -54.877196130579 Eh       

CPCM Solvation Model Properties:
Surface-charge          :         -0.01707738966366
Corrected charge        :         -0.00000000000000
Outlying charge corr.   :          0.00002064362078 Eh               0.00056 eV
Free-energy (cav+disp)  :  This term is not implemented in the current solvation scheme

---------------
SCF CONVERGENCE
---------------

  Last Energy change         ...   -8.4244e-09  Tolerance :   1.0000e-08
  Last MAX-Density change    ...    5.0088e-05  Tolerance :   1.0000e-07
  Last RMS-Density change    ...    6.9009e-06  Tolerance :   5.0000e-09
  Last DIIS Error            ...    1.1420e-03  Tolerance :   5.0000e-07
  Last Orbital Gradient      ...    2.1989e-05  Tolerance :   1.0000e-05
  Last Orbital Rotation      ...    3.5995e-05  Tolerance :   1.0000e-05


----------------
ORBITAL ENERGIES
----------------

  NO   OCC          E(Eh)            E(eV) 
   0   2.0000     -19.201950      -522.5116 
   1   2.0000     -19.121571      -520.3244 
   2   2.0000     -10.323579      -280.9189 
   3   2.0000     -10.268429      -279.4182 
   4   2.0000     -10.223387      -278.1925 
   5   2.0000     -10.211380      -277.8658 
   6   2.0000     -10.205784      -277.7135 
   7   2.0000     -10.204100      -277.6677 
   8   2.0000     -10.203915      -277.6626 
   9   2.0000     -10.199930      -277.5542 
  10   2.0000     -10.196229      -277.4535 
  11   2.0000      -1.111817       -30.2541 
  12   2.0000      -1.021554       -27.7979 
  13   2.0000      -0.865960       -23.5640 
  14   2.0000      -0.818294       -22.2669 
  15   2.0000      -0.758255       -20.6332 
  16   2.0000      -0.746284       -20.3074 
  17   2.0000      -0.656836       -17.8734 
  18   2.0000      -0.646767       -17.5994 
  19   2.0000      -0.619711       -16.8632 
  20   2.0000      -0.560526       -15.2527 
  21   2.0000      -0.527404       -14.3514 
  22   2.0000      -0.499574       -13.5941 
  23   2.0000      -0.481404       -13.0997 
  24   2.0000      -0.470952       -12.8153 
  25   2.0000      -0.453016       -12.3272 
  26   2.0000      -0.445606       -12.1255 
  27   2.0000      -0.437914       -11.9162 
  28   2.0000      -0.421340       -11.4652 
  29   2.0000      -0.394821       -10.7436 
  30   2.0000      -0.387687       -10.5495 
  31   2.0000      -0.372285       -10.1304 
  32   2.0000      -0.355622        -9.6770 
  33   2.0000      -0.345568        -9.4034 
  34   2.0000      -0.320667        -8.7258 
  35   2.0000      -0.287748        -7.8300 
  36   2.0000      -0.257794        -7.0149 
  37   2.0000      -0.241657        -6.5758 
  38   0.0000      -0.071248        -1.9387 
  39   0.0000      -0.016384        -0.4458 
  40   0.0000      -0.002673        -0.0727 
  41   0.0000       0.071985         1.9588 
  42   0.0000       0.081130         2.2076 
  43   0.0000       0.083880         2.2825 
  44   0.0000       0.112229         3.0539 
  45   0.0000       0.130867         3.5611 
  46   0.0000       0.144217         3.9243 
  47   0.0000       0.151258         4.1159 
  48   0.0000       0.166534         4.5316 
*Only the first 10 virtual orbitals were printed.

                    ********************************
                    * MULLIKEN POPULATION ANALYSIS *
                    ********************************

-----------------------
MULLIKEN ATOMIC CHARGES
-----------------------
   0 O :   -0.251395
   1 C :    0.220369
   2 O :   -0.244706
   3 C :    0.183013
   4 C :    0.005765
   5 C :   -0.024505
   6 C :    0.017715
   7 C :    0.016493
   8 C :   -0.033393
   9 C :    0.104813
  10 C :   -0.097064
  11 H :    0.008690
  12 H :    0.012602
  13 H :    0.020761
  14 H :    0.004633
  15 H :    0.028345
  16 H :    0.027865
Sum of atomic charges:   -0.0000000

--------------------------------
MULLIKEN REDUCED ORBITAL CHARGES
--------------------------------
  0 O s       :     3.704470  s :     3.704470
      pz      :     1.435366  p :     4.529259
      px      :     1.503151
      py      :     1.590742
      dz2     :     0.002013  d :     0.017666
      dxz     :     0.003257
      dyz     :     0.002286
      dx2y2   :     0.003905
      dxy     :     0.006205

  1 C s       :     3.026071  s :     3.026071
      pz      :     0.845092  p :     2.626109
      px      :     0.818125
      py      :     0.962891
      dz2     :     0.007360  d :     0.127452
      dxz     :     0.022068
      dyz     :     0.013171
      dx2y2   :     0.051867
      dxy     :     0.032986

  2 O s       :     3.711566  s :     3.711566
      pz      :     1.696047  p :     4.517143
      px      :     1.180524
      py      :     1.640571
      dz2     :     0.002207  d :     0.015998
      dxz     :     0.002714
      dyz     :     0.001932
      dx2y2   :     0.002522
      dxy     :     0.006623

  3 C s       :     3.001622  s :     3.001622
      pz      :     0.979230  p :     2.743538
      px      :     0.794590
      py      :     0.969718
      dz2     :     0.005398  d :     0.071827
      dxz     :     0.012373
      dyz     :     0.008802
      dx2y2   :     0.020926
      dxy     :     0.024330

  4 C s       :     3.072602  s :     3.072602
      pz      :     1.038646  p :     2.880681
      px      :     0.859193
      py      :     0.982842
      dz2     :     0.003241  d :     0.040952
      dxz     :     0.006149
      dyz     :     0.005581
      dx2y2   :     0.014894
      dxy     :     0.011088

  5 C s       :     3.262791  s :     3.262791
      pz      :     0.962155  p :     2.727175
      px      :     0.933316
      py      :     0.831704
      dz2     :     0.002569  d :     0.034539
      dxz     :     0.006758
      dyz     :     0.002370
      dx2y2   :     0.011997
      dxy     :     0.010845

  6 C s       :     3.176259  s :     3.176259
      pz      :     0.994295  p :     2.771729
      px      :     0.867455
      py      :     0.909979
      dz2     :     0.002467  d :     0.034297
      dxz     :     0.003567
      dyz     :     0.004808
      dx2y2   :     0.011246
      dxy     :     0.012210

  7 C s       :     3.181891  s :     3.181891
      pz      :     0.952314  p :     2.766467
      px      :     0.888144
      py      :     0.926010
      dz2     :     0.002482  d :     0.035149
      dxz     :     0.003520
      dyz     :     0.005713
      dx2y2   :     0.011156
      dxy     :     0.012278

  8 C s       :     3.279676  s :     3.279676
      pz      :     1.014383  p :     2.721008
      px      :     0.931709
      py      :     0.774916
      dz2     :     0.002600  d :     0.032709
      dxz     :     0.005921
      dyz     :     0.002696
      dx2y2   :     0.011177
      dxy     :     0.010315

  9 C s       :     3.193687  s :     3.193687
      pz      :     0.884012  p :     2.665496
      px      :     0.939629
      py      :     0.841855
      dz2     :     0.002533  d :     0.036003
      dxz     :     0.007551
      dyz     :     0.002828
      dx2y2   :     0.012431
      dxy     :     0.010659

 10 C s       :     3.242788  s :     3.242788
      pz      :     1.039979  p :     2.823717
      px      :     0.873969
      py      :     0.909769
      dz2     :     0.002589  d :     0.030559
      dxz     :     0.003826
      dyz     :     0.002716
      dx2y2   :     0.013106
      dxy     :     0.008322

 11 H s       :     0.968168  s :     0.968168
      pz      :     0.004327  p :     0.023142
      px      :     0.003258
      py      :     0.015557

 12 H s       :     0.964383  s :     0.964383
      pz      :     0.004466  p :     0.023015
      px      :     0.011992
      py      :     0.006558

 13 H s       :     0.956321  s :     0.956321
      pz      :     0.004207  p :     0.022918
      px      :     0.012853
      py      :     0.005858

 14 H s       :     0.972214  s :     0.972214
      pz      :     0.004462  p :     0.023153
      px      :     0.003116
      py      :     0.015575

 15 H s       :     0.948618  s :     0.948618
      pz      :     0.003653  p :     0.023037
      px      :     0.003353
      py      :     0.016030

 16 H s       :     0.948891  s :     0.948891
      pz      :     0.004471  p :     0.023244
      px      :     0.013962
      py      :     0.004811



                     *******************************
                     * LOEWDIN POPULATION ANALYSIS *
                     *******************************

----------------------
LOEWDIN ATOMIC CHARGES
----------------------
   0 O :   -0.221617
   1 C :    0.085846
   2 O :   -0.046749
   3 C :    0.071618
   4 C :   -0.063930
   5 C :    0.000335
   6 C :   -0.033394
   7 C :   -0.001043
   8 C :   -0.040954
   9 C :    0.050010
  10 C :   -0.073971
  11 H :    0.043298
  12 H :    0.040180
  13 H :    0.042867
  14 H :    0.044968
  15 H :    0.052886
  16 H :    0.049650

-------------------------------
LOEWDIN REDUCED ORBITAL CHARGES
-------------------------------
  0 O s       :     3.541931  s :     3.541931
      pz      :     1.428432  p :     4.649637
      px      :     1.580677
      py      :     1.640527
      dz2     :     0.004312  d :     0.030050
      dxz     :     0.004147
      dyz     :     0.002875
      dx2y2   :     0.005803
      dxy     :     0.012914

  1 C s       :     2.850609  s :     2.850609
      pz      :     0.839426  p :     2.777478
      px      :     0.892214
      py      :     1.045839
      dz2     :     0.016664  d :     0.286066
      dxz     :     0.042682
      dyz     :     0.024705
      dx2y2   :     0.122614
      dxy     :     0.079401

  2 O s       :     3.432014  s :     3.432014
      pz      :     1.669786  p :     4.583112
      px      :     1.257475
      py      :     1.655852
      dz2     :     0.004227  d :     0.031623
      dxz     :     0.005210
      dyz     :     0.001999
      dx2y2   :     0.006730
      dxy     :     0.013457

  3 C s       :     2.839227  s :     2.839227
      pz      :     0.968300  p :     2.920761
      px      :     0.922438
      py      :     1.030024
      dz2     :     0.011788  d :     0.168394
      dxz     :     0.024458
      dyz     :     0.017898
      dx2y2   :     0.053457
      dxy     :     0.060794

  4 C s       :     2.842475  s :     2.842475
      pz      :     1.012035  p :     3.112708
      px      :     1.047580
      py      :     1.053093
      dz2     :     0.007973  d :     0.108747
      dxz     :     0.012057
      dyz     :     0.011663
      dx2y2   :     0.043108
      dxy     :     0.033946

  5 C s       :     2.863754  s :     2.863754
      pz      :     0.949839  p :     3.046195
      px      :     1.052815
      py      :     1.043542
      dz2     :     0.006087  d :     0.089716
      dxz     :     0.014556
      dyz     :     0.003978
      dx2y2   :     0.034151
      dxy     :     0.030942

  6 C s       :     2.862626  s :     2.862626
      pz      :     0.977461  p :     3.081584
      px      :     1.050257
      py      :     1.053866
      dz2     :     0.006086  d :     0.089184
      dxz     :     0.006781
      dyz     :     0.010050
      dx2y2   :     0.032111
      dxy     :     0.034156

  7 C s       :     2.865819  s :     2.865819
      pz      :     0.936368  p :     3.045256
      px      :     1.048426
      py      :     1.060462
      dz2     :     0.005964  d :     0.089968
      dxz     :     0.006599
      dyz     :     0.012048
      dx2y2   :     0.031457
      dxy     :     0.033900

  8 C s       :     2.864653  s :     2.864653
      pz      :     0.996386  p :     3.089501
      px      :     1.049102
      py      :     1.044013
      dz2     :     0.006480  d :     0.086800
      dxz     :     0.012789
      dyz     :     0.004396
      dx2y2   :     0.032420
      dxy     :     0.030717

  9 C s       :     2.868966  s :     2.868966
      pz      :     0.874158  p :     2.988808
      px      :     1.056531
      py      :     1.058119
      dz2     :     0.006197  d :     0.092215
      dxz     :     0.015991
      dyz     :     0.004707
      dx2y2   :     0.035074
      dxy     :     0.030245

 10 C s       :     2.879095  s :     2.879095
      pz      :     1.015433  p :     3.110454
      px      :     1.064931
      py      :     1.030089
      dz2     :     0.007098  d :     0.084422
      dxz     :     0.006561
      dyz     :     0.006287
      dx2y2   :     0.038066
      dxy     :     0.026409

 11 H s       :     0.888573  s :     0.888573
      pz      :     0.013563  p :     0.068129
      px      :     0.010375
      py      :     0.044191

 12 H s       :     0.891956  s :     0.891956
      pz      :     0.014093  p :     0.067864
      px      :     0.034017
      py      :     0.019754

 13 H s       :     0.889640  s :     0.889640
      pz      :     0.013193  p :     0.067493
      px      :     0.036369
      py      :     0.017932

 14 H s       :     0.885652  s :     0.885652
      pz      :     0.014489  p :     0.069379
      px      :     0.010272
      py      :     0.044619

 15 H s       :     0.879476  s :     0.879476
      pz      :     0.011346  p :     0.067638
      px      :     0.010645
      py      :     0.045647

 16 H s       :     0.880139  s :     0.880139
      pz      :     0.015161  p :     0.070211
      px      :     0.039538
      py      :     0.015512



                      *****************************
                      * MAYER POPULATION ANALYSIS *
                      *****************************

  NA   - Mulliken gross atomic population
  ZA   - Total nuclear charge
  QA   - Mulliken gross atomic charge
  VA   - Mayer's total valence
  BVA  - Mayer's bonded valence
  FA   - Mayer's free valence

  ATOM       NA         ZA         QA         VA         BVA        FA
  0 O      8.2514     8.0000    -0.2514     2.2640     2.2640    -0.0000
  1 C      5.7796     6.0000     0.2204     4.2870     4.2870    -0.0000
  2 O      8.2447     8.0000    -0.2447     2.2443     2.2443     0.0000
  3 C      5.8170     6.0000     0.1830     3.8818     3.8818    -0.0000
  4 C      5.9942     6.0000     0.0058     3.8241     3.8241     0.0000
  5 C      6.0245     6.0000    -0.0245     3.8104     3.8104     0.0000
  6 C      5.9823     6.0000     0.0177     3.7815     3.7815     0.0000
  7 C      5.9835     6.0000     0.0165     3.7995     3.7995     0.0000
  8 C      6.0334     6.0000    -0.0334     3.8245     3.8245    -0.0000
  9 C      5.8952     6.0000     0.1048     3.7739     3.7739    -0.0000
 10 C      6.0971     6.0000    -0.0971     3.7775     3.7775    -0.0000
 11 H      0.9913     1.0000     0.0087     0.9875     0.9875     0.0000
 12 H      0.9874     1.0000     0.0126     0.9805     0.9805     0.0000
 13 H      0.9792     1.0000     0.0208     0.9802     0.9802     0.0000
 14 H      0.9954     1.0000     0.0046     0.9946     0.9946    -0.0000
 15 H      0.9717     1.0000     0.0283     0.9873     0.9873    -0.0000
 16 H      0.9721     1.0000     0.0279     0.9986     0.9986    -0.0000

  Mayer bond orders larger than 0.100000
B(  0-O ,  1-C ) :   2.0918 B(  1-C ,  2-O ) :   1.0415 B(  1-C , 10-C ) :   1.0690 
B(  2-O ,  3-C ) :   1.0869 B(  3-C ,  4-C ) :   1.2812 B(  3-C ,  8-C ) :   1.3579 
B(  4-C ,  5-C ) :   1.2972 B(  4-C ,  9-C ) :   1.1338 B(  5-C ,  6-C ) :   1.4006 
B(  5-C , 11-H ) :   0.9954 B(  6-C ,  7-C ) :   1.3268 B(  6-C , 12-H ) :   0.9913 
B(  7-C ,  8-C ) :   1.3755 B(  7-C , 13-H ) :   0.9876 B(  8-C , 14-H ) :   0.9955 
B(  9-C , 10-C ) :   1.6150 B(  9-C , 15-H ) :   0.9773 B( 10-C , 16-H ) :   0.9735 


-------
TIMINGS
-------

Total SCF time: 0 days 0 hours 0 min 6 sec 

Total time                  ....       6.981 sec
Sum of individual times     ....       6.512 sec  ( 93.3%)

SCF preparation             ....       0.202 sec  (  2.9%)
Fock matrix formation       ....       5.441 sec  ( 77.9%)
  Startup                   ....       0.027 sec  (  0.5% of F)
  Split-RI-J                ....       0.511 sec  (  9.4% of F)
  Chain of spheres X        ....       3.177 sec  ( 58.4% of F)
  XC integration            ....       0.962 sec  ( 17.7% of F)
    Basis function eval.    ....       0.313 sec  ( 32.5% of XC)
    Density eval.           ....       0.156 sec  ( 16.2% of XC)
    XC-Functional eval.     ....       0.023 sec  (  2.4% of XC)
    XC-Potential eval.      ....       0.194 sec  ( 20.2% of XC)
  CPCM terms                ....       0.898 sec  ( 16.5% of F)
Diagonalization             ....       0.000 sec  (  0.0%)
Density matrix formation    ....       0.198 sec  (  2.8%)
Total Energy calculation    ....       0.179 sec  (  2.6%)
Population analysis         ....       0.032 sec  (  0.5%)
Orbital Transformation      ....       0.030 sec  (  0.4%)
Orbital Orthonormalization  ....       0.000 sec  (  0.0%)
DIIS solution               ....       0.223 sec  (  3.2%)
SOSCF solution              ....       0.207 sec  (  3.0%)
Finished LeanSCF after   7.1 sec

Maximum memory used throughout the entire LEANSCF-calculation: 15.2 MB


-------------------------------------------------------------------------------
                          DFT DISPERSION CORRECTION                            
                                                                               
                              DFTD3 V3.1  Rev 1                                
                          USING Becke-Johnson damping                          
-------------------------------------------------------------------------------
The B3LYP functional is recognized
Active option DFTDOPT                   ...         4   

molecular C6(AA) [au] = 3889.521348 


            DFT-D V3
 parameters
 s6 scaling factor         :     1.0000 
 a1 scaling factor         :     0.3981 
 s8 scaling factor         :     1.9889 
 a2 scaling factor         :     4.4211 
 ad hoc parameters k1-k3   :    16.0000     1.3333    -4.0000 

 Edisp/kcal,au: -21.255620307517  -0.033872983467 
 E6   /kcal   :  -9.707482656 
 E8   /kcal   : -11.548137651 
 % E8         :  54.329807760 

-------------------------   ----------------
Dispersion correction           -0.033872983
-------------------------   ----------------


-------------------------   --------------------
FINAL SINGLE POINT ENERGY      -496.429504350105
-------------------------   --------------------



           ************************************************************
           *        Program running with 8 parallel MPI-processes     *
           *              working on a common directory               *
           ************************************************************

------------------------------------------------------------------------------
                              ORCA PROPERTY CALCULATIONS
------------------------------------------------------------------------------

GBWName                                 ... CMR_GOLD_055_sp_charge_clean.gbw
Number of atoms                         ...     17
Number of basis functions               ...    184
Max core memory                         ...   3000 MB

Electric properties:
Dipole moment                           ... YES
Quadrupole moment                       ...  NO
Static polarizability (Dipole/Dipole)   ...  NO
Static polarizability (Dipole/Quad.)    ...  NO
Static polarizability (Quad./Quad.)     ...  NO
Static polarizability (Velocity)        ...  NO
Static hyperpolarizability              ...  NO

Atomic electric properties:
Dipole moment                           ...  NO
Quadrupole moment                       ...  NO
Static polarizability                   ...  NO

Choice of electric origin               ... Center of mass
Position of electric origin             ...    -0.785922     0.611575    -0.034598

General magnetic properties:
Magnetizability                         ...  NO

EPR properties:
g-Tensor (aka g-matrix)                 ...  NO
Zero-Field splitting spin-orbit         ...  NO
Zero-field splitting spin-spin          ...  NO
Hyperfine couplings                     ...  NO (   0 nuclei)
Quadrupole couplings                    ...  NO (   0 nuclei)
Contact density                         ...  NO (   0 nuclei)

NMR properties:
Chemical shifts                         ...  NO (   0 nuclei)
Spin-rotation constants                 ...  NO (   0 nuclei)
Spin-spin couplings                     ...  NO (   0 nuclei,    0 pairs)

Choice of magnetic origin               ... GIAO
Position of magnetic origin             ...     0.000000     0.000000     0.000000

Properties with geometric perturbations:
SCF Hessian                             ...  NO
IR spectrum                             ...  NO
VCD spectrum                            ...  NO
X-ray spectroscopy properties:
SCF XES/XAS/RIXS spectra                ...  NO

SCF SOC stabilization energy            ...  NO
Diagonal Born-Oppenheimer correction    ...  NO

-------------
DIPOLE MOMENT
-------------

Method             : SCF
Type of density    : Electron Density
Multiplicity       :   1
Irrep              :   0
Energy             :  -496.3956313666386109 Eh
Basis              : AO
                                X                 Y                 Z
Electronic contribution:     -4.120264947       2.829281003      -0.184347841
Nuclear contribution   :      5.940358552      -4.670195116       0.261985586
                        -----------------------------------------
Total Dipole Moment    :      1.820093605      -1.840914113       0.077637745
                        -----------------------------------------
Magnitude (a.u.)       :      2.589929173
Magnitude (Debye)      :      6.583076792



--------------------
Rotational spectrum 
--------------------
 
Rotational constants in cm-1:             0.094116             0.029361             0.022379 
Rotational constants in MHz :          2821.539485           880.221883           670.918922 

Dipole components along the rotational axes: 
x,y,z [a.u.] :    -2.206222    -1.356583    -0.000866 
x,y,z [Debye]:    -5.607770    -3.448160    -0.002201 

 

Dipole moment calculation done in   0.0 sec 

Maximum memory used throughout the entire PROP-calculation: 7.9 MB

--------------------------------
SUGGESTED CITATIONS FOR THIS RUN
--------------------------------

Below you find a list of papers that are relevant to this ORCA run
We neither can nor want to force you to cite these papers, but we appreciate if you do
You receive ORCA, which is the product of decades of hard work by many enthusiastic individuals, for free
The only thing we kindly ask in return is that you cite our papers,
We deeply appreciate it, if you show your appreciation for ORCA by not just citing the generic ORCA reference.

Please note that relegating all ORCA citations to the supporting information does *not* help us.
SI sections are not indexed - citations you put there will not count into any citation statistics
But we need these citations in order to attract the funding resources that allow us to do what we are doing

Therefore, if you are a happy ORCA user, please consider citing a few of the papers listed below in the main body of your paper

In addition to the list printed below, the program has created the file CMR_GOLD_055_sp_charge_clean.bibtex that contains the list in bibtex format
You can import this file easily into all common literature databanks and citation aid programs

It goes without saying that in many instances, there are alternative algorithms to achieve similar
results as the ones you have gotten from ORCA. It is, of course, also the case that in some instances
ORCA just re-implements algorithms worked out by others. We are fully aware of that and we are also
fully appreciative of our colleagues work. Hence this citation list should not be read as indicating
that the listed papers, which are focused on our own work, are the only ones worth citing. It simply
meant to make it easier for users to cite ORCA specific papers. It is not a substitute for doing your
own literature research and citing the relevant literature in a scientifically appropriate manner.

List of essential papers. We consider these as the minimum necessary citations

  1. Neese, F.
     Software update: the ORCA program system, version 6.0
     WIRES Comput. Molec. Sci. 2025 15(1), e70019
     doi.org/10.1002/wcms.70019

List of papers to cite with high priority. The work reported in these papers was absolutely
necessary for this run to complete.
Our perspective: the developers of density functionals and basis sets usually get cited in chemistry papers
Good! But without the algorithms to do something with them, the functionals or basis sets would not do anything.
Hence, in our opinion, the algorithm design and method developments papers are equally worthy of getting cited

  1. Neese, F.
     An improvement of the resolution of the identity approximation for the formation of the Coulomb matrix
     J. Comp. Chem. 2003 24(14), 1740-1747
     doi.org/10.1002/jcc.10318
  2. Neese, F.; Wennmohs, F.; Hansen, A.; Becker, U.
     Efficient, approximate and parallel Hartree-Fock and hybrid DFT calculations. A 'chain-of-spheres' algorithm for the Hartree-Fock exchange
     Chem. Phys. 2009 356(1-3), 98-109
     doi.org/10.1016/j.chemphys.2008.10.036
  3. Grimme, S.; Antony, J.; Ehrlich, S.; Krieg, H.
     A consistent and accurate ab initio parametrization of density functional dispersion correction (DFT-D) for the 94 elements H-Pu
     J. Chem. Phys. 2010 132 , 154104
     doi.org/10.1063/1.3382344
  4. Grimme, S.; Ehrlich, S.; Goerigk, L.
     Effect of the damping function in dispersion corrected density functional theory
     J. Comput. Chem. 2011 32(7), 1456-1465
     doi.org/10.1002/jcc.21759
  5. Garcia-Rates, M.; Neese, F.
     Effect of the Solute Cavity on the Solvation Energy and its Derivatives within the Framework of the Gaussian Charge Scheme
     J. Comput. Chem. 2020 41 , 922-939
     doi.org/10.1002/jcc.26139
  6. Helmich-Paris, B.; de Souza, B.; Neese, F.; Izsák, R.
     An improved chain of spheres for exchange algorithm
     J. Chem. Phys. 2021 155(10), 104109
     doi.org/10.1063/5.0058766
  7. Neese, F.
     The SHARK Integral Generation and Digestion System
     J. Comp. Chem. 2022 44(3), 381
     doi.org/10.1002/jcc.26942

List of suggested additional citations. These are papers that are important in the 'surrounding' of 
of this run, or papers that preceded the highly important papers. If you like your results we are grateful for a citation.

  1. Izsak, R.; Neese, F.
     An overlap fitted chain of spheres exchange method
     J. Chem. Phys. 2011 135 , 144105
     doi.org/10.1063/1.3646921
  2. Izsak, R.; Hansen, A.; Neese, F.
     The resolution of identity and chain of spheres approximations for the LPNO-CCSD singles Fock term
     Molec. Phys. 2012 110 , 2413-2417
     doi.org/10.1080/00268976.2012.687466
  3. Neese, F.
     The ORCA program system
     WIRES Comput. Molec. Sci. 2012 2(1), 73-78
     doi.org/10.1002/wcms.81
  4. Izsak, R.; Neese, F.; Klopper, W.
     Robust fitting techniques in the chain of spheres approximation to the Fock exchange: The role of the complementary space
     J. Chem. Phys. 2013 139 , 
     doi.org/10.1063/1.4819264
  5. Neese, F.
     Software update: the ORCA program system, version 4.0
     WIRES Comput. Molec. Sci. 2018 8(1), 1-6
     doi.org/10.1002/wcms.1327
  6. Neese, F.; Wennmohs, F.; Becker, U.; Riplinger, C.
     The ORCA quantum chemistry program package
     J. Chem. Phys. 2020 152(22), 224108
     doi.org/10.1063/5.0004608
  7. Neese, F.
     Software update: The ORCA program system—Version 5.0
     WIRES Comput. Molec. Sci. 2022 12(1), e1606
     doi.org/10.1002/wcms.1606

List of optional additional citations

  1. Neese, F.
     Approximate second-order SCF convergence for spin unrestricted wavefunctions
     Chem. Phys. Lett. 2000 325(1-3), 93-98
     doi.org/10.1016/s0009-2614(00)00662-x

Timings for individual modules:

Sum of individual times          ...        8.502 sec (=   0.142 min)
Startup calculation              ...        0.786 sec (=   0.013 min)   9.2 %
SCF iterations                   ...        7.552 sec (=   0.126 min)  88.8 %
Property calculations            ...        0.164 sec (=   0.003 min)   1.9 %
                             ****ORCA TERMINATED NORMALLY****
TOTAL RUN TIME: 0 days 0 hours 0 minutes 8 seconds 825 msec
