
                                 *****************
                                 * O   R   C   A *
                                 *****************

                                            #,                                       
                                            ###                                      
                                            ####                                     
                                            #####                                    
                                            ######                                   
                                           ########,                                 
                                     ,,################,,,,,                         
                               ,,#################################,,                 
                          ,,##########################################,,             
                       ,#########################################, ''#####,          
                    ,#############################################,,   '####,        
                  ,##################################################,,,,####,       
                ,###########''''           ''''###############################       
              ,#####''   ,,,,##########,,,,          '''####'''          '####       
            ,##' ,,,,###########################,,,                        '##       
           ' ,,###''''                  '''############,,,                           
         ,,##''                                '''############,,,,        ,,,,,,###''
      ,#''                                            '''#######################'''  
     '                                                          ''''####''''         
             ,#######,   #######,   ,#######,      ##                                
            ,#'     '#,  ##    ##  ,#'     '#,    #''#        ,####,    ,#,          
            ##       ##  ##   ,#'  ##            #'  '#       #'       ,# #          
            ##       ##  #######   ##           ,######,      #####,      #          
            '#,     ,#'  ##    ##  '#,     ,#' ,#      #,     #,   #      #          
             '#######'   ##     ##  '#######'  #'      '#     '####' #    #          



                #########################################################
                #                        -***-                          #
                #          Department of theory and spectroscopy        #
                #                                                       #
                #                      Frank Neese                      #
                #                                                       #
                #     Directorship, Architecture, Infrastructure        #
                #                    SHARK, DRIVERS                     #
                #        Core code/Algorithms in most modules           #
                #                                                       #
                #        Max Planck Institute fuer Kohlenforschung      #
                #                Kaiser Wilhelm Platz 1                 #
                #                 D-45470 Muelheim/Ruhr                 #
                #                      Germany                          #
                #                                                       #
                #                  All rights reserved                  #
                #                        -***-                          #
                #########################################################


                         Program Version 6.1.1  -  RELEASE   -


 With contributions from (in alphabetic order):
[Max-Planck-Institut fuer Kohlenforschung]                               
  Daniel Aravena         : Magnetic Suceptibility                        
  Michael Atanasov       : Ab Initio Ligand Field Theory (pilot matlab implementation)
  Alexander A. Auer      : GIAO ZORA, VPT2 properties, NMR spectrum      
  Ute Becker             : All parallelization in ORCA, NUMFREQ, NUMCALC 
  Giovanni Bistoni       : ED, misc. LED, open-shell LED, HFLD           
  Dmytro Bykov           : pre 5.0 version of the SCF Hessian            
  Marcos Casanova-Páez   : Triplet and SCS-CIS(D). UHF-(DLPNO)-IP/EA/STEOM-CCSD. UHF-CVS-IP/STEOM-CCSD   
  Vijay G. Chilkuri      : MRCI spin determinant printing, contributions to CSF-ICE 
  Pauline Colinet        : FMM embedding                                 
  Dipayan Datta          : RHF DLPNO-CCSD density                        
  Achintya Kumar Dutta   : EOM-CC, STEOM-CC                              
  Nicolas Foglia         : Exact transition moments, OPA infrastructure, MCD improvements    
  Dmitry Ganyushin       : Spin-Orbit,Spin-Spin,Magnetic field MRCI      
  Miquel Garcia-Rates    : C-PCM and meta-GGA Hessian, CCSD/C-PCM, Gaussian charge scheme 
  Tiago L. C. Gouveia    : GS-ROHF, GS-ROCIS                             
  Yang Guo               : DLPNO-NEVPT2, F12-NEVPT2, CIM, IAO-localization        
  Andreas Hansen         : Spin unrestricted coupled pair/coupled cluster methods 
  Ingolf Harden          : AUTO-CI MPn and infrastructure                
  Benjamin Helmich-Paris : MC-RPA, TRAH-(SCF,CASSCF), AVAS, COSX integrals, SCF dyn. polar., MC-PDFT, srDFT 
  Lee Huntington         : MR-EOM, pCC                                   
  Robert Izsak           : Overlap fitted RIJCOSX, COSX-SCS-MP3, EOM     
  Riya Kayal             : Wick's Theorem for AUTO-CI, AUTO-CI UHF-CCSDT 
  Emily Kempfer          : AUTO-CI RHF CISDT and CCSDT, approximate NEVPT4
  Christian Kollmar      : KDIIS, OOCD, Brueckner-CCSD(T), CCSD density, CASPT2, CASPT2-K, improved NEVPT2 
  Axel Koslowski         : Symmetry handling                             
  Simone Kossmann        : meta-GGA functionals, TD-DFT gradient, OOMP2, (MP2 Hessian; deprecated post 5.0) 
  Lucas Lang             : DCDCAS, Hyperfine gauge corrections, ICE-SOC+SSC
  Marvin Lechner         : AUTO-CI (C++ implementation), FIC-MRCC        
  Spencer Leger          : CASSCF response                               
  Dagmar Lenk            : GEPOL surface, SMD, ORCA-2-JSON               
  Dimitrios Liakos       : Extrapolation schemes; Compound Job, Property file
  Dimitrios Manganas     : Further ROCIS development; embedding schemes. LFT, Crystal Embedding 
  Dimitrios Pantazis     : SARC Basis sets                               
  Anastasios Papadopoulos: AUTO-CI, single reference methods and gradients 
  Taras Petrenko         : pre 6.0 DFT Hessian and TD-DFT gradient,  ECA, NRVS 
  Petra Pikulova         : Analytic Raman intensities                    
  Peter Pinski           : DLPNO-MP2, DLPNO-MP2 Gradient                 
  Shashank Vittal Rao    : ES-AILFT, MagRelax                            
  Christoph Reimann      : Effective Core Potentials                     
  Marius Retegan         : Local ZFS, SOC                                
  Christoph Riplinger    : Optimizer, TS searches, QM/MM, DLPNO-CCSD(T), (RO)-DLPNO pert. Triples 
  Michael Roemelt        : Original ROCIS implementation, recursive CI coupling coefficients
  Masaaki Saitow         : Open-shell DLPNO-CCSD energy and density      
  Barbara Sandhoefer     : DKH picture change effects                    
  Yorick L. A. Schmerwitz: GMF and freeze-and-release deltaSCF, NEB S-IDPP initial path                    
  Kantharuban Sivalingam : CASSCF convergence/infrastructure, NEVPT2, NEVPT3, NEVPT4(SD), FIC-MRCI and CEPA variants
  Bernardo de Souza      : ESD, SOC TD-DFT                               
  Georgi L. Stoychev     : AutoAux, RI-MP2 NMR, DLPNO-MP2 response, X2C  
  Van Anh Tran           : RI-MP2 g-tensors                              
  Willem Van den Heuvel  : Paramagnetic NMR                              
  Zikuan Wang            : NOTCH, Electric field optimization            
  Frank Wennmohs         : Technical directorship and infrastructure     
  Hang Xu                : AUTO-CI-Response properties                   
                                                                         
[FACCTs GmbH]                                                            
  Markus Bursch, Nicolas Foglia, Miquel Garcia-Rates, Ingolf Harden, Hagen Neugebauer, Anastasios Papadopoulos, 
  Christoph Riplinger, Bernardo de Souza, Georgi L. Stoychev                                                    
                                                                 
  APM, various basis sets, CI-OPT, improved COSX, DLPNO-Multilevel,           
  DOCKER, DRACO, updates on ESD, Fragmentator, GOAT, IRC, LR-CPCM, L-BFGS, MBIS, meta-GGA TD-DFT gradient, ML-optimized integration grids, 
  MM, NACMEs, nearIR, NEB, NEB-TS, NL-DFT gradient (VV10), 2- and 3-layer-ONIOM, interface openCOSMO-RS, QMMM,   
  Crystal-QMMM, RESP, rigid body optimization, SF, symmetry and pop. for TD-DFT, various functionals, SOLVATOR                                   
                                                                         
[Other institutions]                                                     
  V. Asgeirsson          : NEB                                           
  Christoph Bannwarth    : sTDA-DFT, sTD-DFT, PBEh-3c, B97-3c, D3        
  Giovanni Bistoni       : ETS/NOCV, ADLD/ADEX, COVALED                  
  Martin Brehm           : Molecular dynamics                            
  Ronald Cardenas        : ETS/NOCV                                      
  Martina Colucci        : COVALED                                       
  Sebastian Ehlert       : rSCAN, r2SCAN, r2SCAN-3c, D4, dhf basis sets  
  Marvin Friede          : D4 for Fr, Ra, Ac-Lr                          
  Lars Goerigk           : TD-DFT with DH, B97 family of functionals     
  Stefan Grimme          : VdW corrections, initial TS optimization, DFT functionals, gCP, sTDA/sTD-DF 
  Waldemar Hujo          : DFT-NL                                        
  H. Jonsson             : NEB                                           
  Holger Kruse           : gCP                                           
  Marcel Mueller         : wB97X-3c, vDZP basis set                      
  Hagen Neugebauer       : wr2SCAN, Native XTB                           
  Gianluca Regni         : ADLD/ADEX                                     
  Tobias Risthaus        : pre 6.0 range-separated hybrid DFT and stability analysis
  Lukas Wittmann         : regularized MP2, r2SCAN double-hybrids, wr2SCAN        
                                                                         
We gratefully acknowledge several colleagues who have allowed us to      
interface, adapt or use parts of their codes:                            
  Ed Valeev, F. Pavosevic, A. Kumar             : LibInt (2-el integral package), F12 methods 
  Garnet Chan, S. Sharma, J. Yang, R. Olivares  : DMRG                   
  Ulf Ekstrom                                   : XCFun DFT Library      
  Mihaly Kallay                                 : mrcc  (arbitrary order and MRCC methods)
  Frank Weinhold                                : gennbo (NPA and NBO analysis)           
  Simon Mueller                                 : openCOSMO-RS                            
  Christopher J. Cramer and Donald G. Truhlar   : smd solvation model                     
  S Lehtola, MJT Oliveira, MAL Marques          : LibXC Library                           
  Liviu Ungur et al                             : ANISO software                          


 Your calculation uses the libint2 library for the computation of 2-el integrals
 For citations please refer to: http://libint.valeyev.net

 Your ORCA version has been built with support for libXC version: 7.0.0
 For citations please refer to: https://libxc.gitlab.io

 This ORCA versions uses:
   CBLAS   interface :  Fast vector & matrix operations
   LAPACKE interface :  Fast linear algebra routines
   Shared memory     :  Shared parallel matrices


  ***********************************
  * Starting time: Thu Apr 30 16:36:59 2026
  * Host name:     AHMET
  * Process ID:    15576
  * Working dir.:  C:\orca_tests\DFT_FINAL_PROPERTIES\055\01_opt_freq
  ***********************************

NOTE: MaxCore=3000 MB was set to SCF,MP2,MDCI,CIPSI,MRCI,RASCI and CIS
      => If you want to overwrite this, your respective input block should be placed after the MaxCore statement


***************************************
The coordinates will be read from file: geom_clean.xyz
***************************************


Your calculation utilizes the atom-pairwise dispersion correction
with the Becke-Johnson damping scheme (D3BJ)


================================================================================

----- Orbital basis set information -----
Your calculation utilizes the basis: def2-SVP
   F. Weigend and R. Ahlrichs, Phys. Chem. Chem. Phys. 7, 3297 (2005).

----- AuxJ basis set information -----
Your calculation utilizes the auxiliary basis: def2/J
   H-Rn: F. Weigend, Phys. Chem. Chem. Phys. 8, 1057 (2006).
   Fr-Lr: K. Eichkorn, F. Weigend, O. Treutler, R. Ahlrichs; Theor. Chem. Acc. 97, 119 (1997).

================================================================================
                                        WARNINGS
                       Please study these warnings very carefully!
================================================================================


WARNING: Geometry Optimization
  ===> : Switching off AutoStart
         For restart on a previous wavefunction, please use MOREAD

================================================================================
                                       INPUT FILE
================================================================================
NAME = CMR_GOLD_055_correct_opt_pal8_clean.inp
|  1> ! B3LYP D3BJ def2-SVP CPCM(Water) TightSCF RIJCOSX def2/J Opt Freq
|  2> 
|  3> %maxcore 3000
|  4> 
|  5> %pal
|  6>   nprocs 8
|  7> end
|  8> 
|  9> %geom
| 10>   MaxIter 300
| 11> end
| 12> 
| 13> * xyzfile 0 1 geom_clean.xyz
| 14> 
| 15>                          ****END OF INPUT****
================================================================================

                       *****************************
                       * Geometry Optimization Run *
                       *****************************

Geometry optimization settings:
Update method            Update   .... BFGS
Choice of coordinates    CoordSys .... (2022) Redundant Internals
Initial Hessian          InHess   .... Almloef's Model
Max. no of cycles        MaxIter  .... 300

Convergence Tolerances:
Energy Change            TolE     ....  5.0000e-06 Eh
Max. Gradient            TolMAXG  ....  3.0000e-04 Eh/bohr
RMS Gradient             TolRMSG  ....  1.0000e-04 Eh/bohr
Max. Displacement        TolMAXD  ....  4.0000e-03 bohr
RMS Displacement         TolRMSD  ....  2.0000e-03 bohr
Strict Convergence                .... False

------------------------------------------------------------------------------
                        ORCA OPTIMIZATION COORDINATE SETUP
------------------------------------------------------------------------------

The optimization will be done in redundant internal coordinates (2022)
Making redundant internal coordinates   ...  (2022 redundants) done
Evaluating the initial hessian          ...  (Almloef) done
Evaluating the coordinates              ...  done
Calculating the B-matrix                .... done
Calculating the G-matrix                .... done
The number of degrees of freedom        ....   86

    -----------------------------------------------------------------
                    Redundant Internal Coordinates


    -----------------------------------------------------------------
         Definition                    Initial Value    Approx d2E/dq
    -----------------------------------------------------------------
      1. B(C   1,O   0)                  1.2081         1.091734   
      2. B(O   2,C   1)                  1.3976         0.544181   
      3. B(C   3,O   2)                  1.3650         0.613385   
      4. B(C   4,C   3)                  1.4090         0.582623   
      5. B(C   5,C   4)                  1.4079         0.584972   
      6. B(C   6,C   5)                  1.3884         0.628398   
      7. B(C   7,C   6)                  1.4040         0.593368   
      8. B(C   8,C   7)                  1.3916         0.621181   
      9. B(C   8,C   3)                  1.3971         0.608640   
     10. B(C   9,C   4)                  1.4423         0.515611   
     11. B(C  10,C   9)                  1.3525         0.717177   
     12. B(C  10,C   1)                  1.4609         0.481459   
     13. B(H  11,C   5)                  1.0874         0.363555   
     14. B(H  12,C   6)                  1.0859         0.365505   
     15. B(H  13,C   7)                  1.0865         0.364763   
     16. B(H  14,C   8)                  1.0851         0.366597   
     17. B(H  15,C   9)                  1.0881         0.362686   
     18. B(H  16,C  10)                  1.0840         0.368064   
     19. A(O   0,C   1,O   2)          117.8843         0.463559   
     20. A(O   2,C   1,C  10)          115.9379         0.402786   
     21. A(O   0,C   1,C  10)          126.1779         0.456343   
     22. A(C   1,O   2,C   3)          122.8324         0.417738   
     23. A(O   2,C   3,C   8)          117.3756         0.428971   
     24. A(C   4,C   3,C   8)          121.1789         0.427823   
     25. A(O   2,C   3,C   4)          121.4454         0.425626   
     26. A(C   5,C   4,C   9)          124.1114         0.415635   
     27. A(C   3,C   4,C   9)          117.3158         0.415338   
     28. A(C   3,C   4,C   5)          118.5728         0.424794   
     29. A(C   4,C   5,C   6)          120.5983         0.430592   
     30. A(C   6,C   5,H  11)          120.5394         0.354287   
     31. A(C   4,C   5,H  11)          118.8623         0.350021   
     32. A(C   5,C   6,C   7)          119.8038         0.431696   
     33. A(C   7,C   6,H  12)          120.0673         0.351182   
     34. A(C   5,C   6,H  12)          120.1289         0.354608   
     35. A(C   8,C   7,H  13)          119.3778         0.353793   
     36. A(C   6,C   7,H  13)          119.8554         0.351061   
     37. A(C   6,C   7,C   8)          120.7667         0.430801   
     38. A(C   7,C   8,H  14)          121.9158         0.354093   
     39. A(C   3,C   8,H  14)          119.0048         0.352872   
     40. A(C   3,C   8,C   7)          119.0794         0.432773   
     41. A(C   4,C   9,C  10)          120.7443         0.431052   
     42. A(C  10,C   9,H  15)          120.5931         0.362193   
     43. A(C   4,C   9,H  15)          118.6626         0.342533   
     44. A(C   9,C  10,H  16)          122.7610         0.363105   
     45. A(C   1,C  10,H  16)          115.5148         0.339464   
     46. A(C   1,C  10,C   9)          121.7242         0.425787   
     47. D(C   3,O   2,C   1,O   0)    179.9939         0.021397   
     48. D(C   3,O   2,C   1,C  10)     -0.0372         0.021397   
     49. D(C   8,C   3,O   2,C   1)   -179.9807         0.027562   
     50. D(C   4,C   3,O   2,C   1)      0.0244         0.027562   
     51. D(C   5,C   4,C   3,C   8)      0.0022         0.023331   
     52. D(C   9,C   4,C   3,O   2)     -0.0009         0.023331   
     53. D(C   9,C   4,C   3,C   8)   -179.9957         0.023331   
     54. D(C   5,C   4,C   3,O   2)    179.9970         0.023331   
     55. D(H  11,C   5,C   4,C   9)     -0.0098         0.023529   
     56. D(H  11,C   5,C   4,C   3)    179.9924         0.023529   
     57. D(C   6,C   5,C   4,C   3)     -0.0010         0.023529   
     58. D(C   6,C   5,C   4,C   9)    179.9968         0.023529   
     59. D(H  12,C   6,C   5,C   4)    179.9949         0.027371   
     60. D(C   7,C   6,C   5,H  11)   -179.9946         0.027371   
     61. D(C   7,C   6,C   5,C   4)     -0.0013         0.027371   
     62. D(H  12,C   6,C   5,H  11)      0.0016         0.027371   
     63. D(H  13,C   7,C   6,H  12)      0.0022         0.024244   
     64. D(H  13,C   7,C   6,C   5)    179.9984         0.024244   
     65. D(C   8,C   7,C   6,H  12)   -179.9938         0.024244   
     66. D(C   8,C   7,C   6,C   5)      0.0024         0.024244   
     67. D(H  14,C   8,C   7,H  13)      0.0077         0.026707   
     68. D(C   3,C   8,C   7,H  13)   -179.9972         0.026707   
     69. D(C   3,C   8,C   7,C   6)     -0.0012         0.026707   
     70. D(H  14,C   8,C   3,C   4)    179.9941         0.025578   
     71. D(H  14,C   8,C   3,O   2)     -0.0008         0.025578   
     72. D(H  14,C   8,C   7,C   6)   -179.9963         0.026707   
     73. D(C   7,C   8,C   3,C   4)     -0.0012         0.025578   
     74. D(C   7,C   8,C   3,O   2)   -179.9961         0.025578   
     75. D(H  15,C   9,C   4,C   3)   -179.9966         0.018125   
     76. D(C  10,C   9,C   4,C   5)    179.9954         0.018125   
     77. D(C  10,C   9,C   4,C   3)     -0.0069         0.018125   
     78. D(H  15,C   9,C   4,C   5)      0.0056         0.018125   
     79. D(H  16,C  10,C   9,H  15)     -0.0116         0.036378   
     80. D(C   1,C  10,C   9,H  15)    179.9819         0.036378   
     81. D(C   1,C  10,C   9,C   4)     -0.0076         0.036378   
     82. D(H  16,C  10,C   1,O   2)   -179.9772         0.015782   
     83. D(H  16,C  10,C   1,O   0)     -0.0113         0.015782   
     84. D(H  16,C  10,C   9,C   4)    179.9989         0.036378   
     85. D(C   9,C  10,C   1,O   2)      0.0288         0.015782   
     86. D(C   9,C  10,C   1,O   0)    179.9948         0.015782   
    -----------------------------------------------------------------

Number of atoms                         .... 17
Number of degrees of freedom            .... 86


         *************************************************************
         *                GEOMETRY OPTIMIZATION CYCLE   1            *
         *************************************************************
---------------------------------
CARTESIAN COORDINATES (ANGSTROEM)
---------------------------------
  O     -3.360368    1.796534   -0.149642
  C     -2.427498    1.030028   -0.108651
  O     -1.139869    1.570137   -0.048707
  C     -0.015131    0.798288    0.001157
  C     -0.088354   -0.608816   -0.005526
  C      1.110137   -1.345732    0.047744
  C      2.336500   -0.697313    0.105545
  C      2.384397    0.705908    0.111007
  C      1.214909    1.458303    0.059127
  C     -1.401121   -1.202969   -0.067231
  C     -2.508890   -0.428623   -0.116152
  H      1.059103   -2.431923    0.042964
  H      3.256218   -1.273263    0.146483
  H      3.343610    1.214182    0.156245
  H      1.230196    2.543324    0.062294
  H     -1.483163   -2.287906   -0.073504
  H     -3.510679   -0.840161   -0.163155

----------------------------
CARTESIAN COORDINATES (A.U.)
----------------------------
  NO LB      ZA    FRAG     MASS         X           Y           Z
   0 O     8.0000    0    15.999   -6.350175    3.394957   -0.282782
   1 C     6.0000    0    12.011   -4.587306    1.946472   -0.205320
   2 O     8.0000    0    15.999   -2.154040    2.967129   -0.092043
   3 C     6.0000    0    12.011   -0.028593    1.508546    0.002187
   4 C     6.0000    0    12.011   -0.166964   -1.150495   -0.010443
   5 C     6.0000    0    12.011    2.097855   -2.543064    0.090224
   6 C     6.0000    0    12.011    4.415345   -1.317731    0.199451
   7 C     6.0000    0    12.011    4.505858    1.333973    0.209774
   8 C     6.0000    0    12.011    2.295845    2.755794    0.111734
   9 C     6.0000    0    12.011   -2.647736   -2.273282   -0.127049
  10 C     6.0000    0    12.011   -4.741114   -0.809979   -0.219496
  11 H     1.0000    0     1.008    2.001415   -4.595669    0.081189
  12 H     1.0000    0     1.008    6.153360   -2.406119    0.276813
  13 H     1.0000    0     1.008    6.318506    2.294472    0.295260
  14 H     1.0000    0     1.008    2.324734    4.806185    0.117719
  15 H     1.0000    0     1.008   -2.802772   -4.323515   -0.138902
  16 H     1.0000    0     1.008   -6.634221   -1.587674   -0.308319

--------------------------------
INTERNAL COORDINATES (ANGSTROEM)
--------------------------------
 O      0   0   0     0.000000000000     0.00000000     0.00000000
 C      1   0   0     1.208080132556     0.00000000     0.00000000
 O      2   1   0     1.397604316271   117.88426310     0.00000000
 C      3   2   1     1.365017665096   122.83238058   179.99392431
 C      4   3   2     1.409023798189   121.44542474     0.02438660
 C      5   4   3     1.407928418558   118.57280022   179.99695936
 C      6   5   4     1.388435553800   120.59832038     0.00000000
 C      7   6   5     1.404049101633   119.80380552     0.00000000
 C      8   7   6     1.391579682459   120.76674811     0.00000000
 C      5   4   3     1.442284593909   117.31583376     0.00000000
 C     10   5   4     1.352462967195   120.74432392     0.00000000
 H      6   5   4     1.087400650161   118.86227565   179.99241292
 H      7   6   5     1.085944319275   120.12890778   179.99490878
 H      8   7   6     1.086497906223   119.85542331   179.99842153
 H      9   8   7     1.085132718912   121.91580480   180.00369715
 H     10   5   4     1.088052491992   118.66261375   180.00336216
 H     11  10   5     1.084045399708   122.76100434   179.99885701

---------------------------
INTERNAL COORDINATES (A.U.)
---------------------------
 O      0   0   0     0.000000000000     0.00000000     0.00000000
 C      1   0   0     2.282940598362     0.00000000     0.00000000
 O      2   1   0     2.641089401339   117.88426310     0.00000000
 C      3   2   1     2.579509554996   122.83238058   179.99392431
 C      4   3   2     2.662669094755   121.44542474     0.02438660
 C      5   4   3     2.660599127239   118.57280022   179.99695936
 C      6   5   4     2.623762951281   120.59832038     0.00000000
 C      7   6   5     2.653268280664   119.80380552     0.00000000
 C      8   7   6     2.629704493377   120.76674811     0.00000000
 C      5   4   3     2.725522889661   117.31583376     0.00000000
 C     10   5   4     2.555784614269   120.74432392     0.00000000
 H      6   5   4     2.054889426652   118.86227565   179.99241292
 H      7   6   5     2.052137360117   120.12890778   179.99490878
 H      8   7   6     2.053183487840   119.85542331   179.99842153
 H      9   8   7     2.050603657702   121.91580480   180.00369715
 H     10   5   4     2.056121229196   118.66261375   180.00336216
 H     11  10   5     2.048548922186   122.76100434   179.99885701

---------------------
BASIS SET INFORMATION
---------------------
There are 3 groups of distinct atoms

 Group   1 Type O   : 7s4p1d contracted to 3s2p1d pattern {511/31/1}
 Group   2 Type C   : 7s4p1d contracted to 3s2p1d pattern {511/31/1}
 Group   3 Type H   : 4s1p contracted to 2s1p pattern {31/1}

Atom   0O    basis set group =>   1
Atom   1C    basis set group =>   2
Atom   2O    basis set group =>   1
Atom   3C    basis set group =>   2
Atom   4C    basis set group =>   2
Atom   5C    basis set group =>   2
Atom   6C    basis set group =>   2
Atom   7C    basis set group =>   2
Atom   8C    basis set group =>   2
Atom   9C    basis set group =>   2
Atom  10C    basis set group =>   2
Atom  11H    basis set group =>   3
Atom  12H    basis set group =>   3
Atom  13H    basis set group =>   3
Atom  14H    basis set group =>   3
Atom  15H    basis set group =>   3
Atom  16H    basis set group =>   3
---------------------------------
AUXILIARY/J BASIS SET INFORMATION
---------------------------------
There are 3 groups of distinct atoms

 Group   1 Type O   : 12s5p4d2f1g contracted to 6s4p3d1f1g pattern {711111/2111/211/2/1}
 Group   2 Type C   : 12s5p4d2f1g contracted to 6s4p3d1f1g pattern {711111/2111/211/2/1}
 Group   3 Type H   : 5s2p1d contracted to 3s1p1d pattern {311/2/1}

Atom   0O    basis set group =>   1
Atom   1C    basis set group =>   2
Atom   2O    basis set group =>   1
Atom   3C    basis set group =>   2
Atom   4C    basis set group =>   2
Atom   5C    basis set group =>   2
Atom   6C    basis set group =>   2
Atom   7C    basis set group =>   2
Atom   8C    basis set group =>   2
Atom   9C    basis set group =>   2
Atom  10C    basis set group =>   2
Atom  11H    basis set group =>   3
Atom  12H    basis set group =>   3
Atom  13H    basis set group =>   3
Atom  14H    basis set group =>   3
Atom  15H    basis set group =>   3
Atom  16H    basis set group =>   3


           ************************************************************
           *        Program running with 8 parallel MPI-processes     *
           *              working on a common directory               *
           ************************************************************
------------------------------------------------------------------------------
                             ORCA STARTUP CALCULATIONS
                           -- RI-GTO INTEGRALS CHOSEN --
------------------------------------------------------------------------------
------------------------------------------------------------------------------
                   ___                                                        
                  /   \      - P O W E R E D   B Y -                         
                 /     \                                                     
                 |  |  |   _    _      __       _____    __    __             
                 |  |  |  | |  | |    /  \     |  _  \  |  |  /  |          
                  \  \/   | |  | |   /    \    | | | |  |  | /  /          
                 / \  \   | |__| |  /  /\  \   | |_| |  |  |/  /          
                |  |  |   |  __  | /  /__\  \  |    /   |      \           
                |  |  |   | |  | | |   __   |  |    \   |  |\   \          
                \     /   | |  | | |  |  |  |  | |\  \  |  | \   \       
                 \___/    |_|  |_| |__|  |__|  |_| \__\ |__|  \__/        
                                                                              
                      - O R C A' S   B I G   F R I E N D -                    
                                      &                                       
                       - I N T E G R A L  F E E D E R -                       
                                                                              
 v1 FN, 2020, v2 2021, v3 2022-2024                                           
------------------------------------------------------------------------------


----------------------
SHARK INTEGRAL PACKAGE
----------------------

Number of atoms                             ...     17
Number of basis functions                   ...    184
Number of shells                            ...     84
Maximum angular momentum                    ...      2
Integral batch strategy                     ... SHARK/LIBINT Hybrid
RI-J (if used) integral strategy            ... SPLIT-RIJ (Revised 2003 algorithm where possible)
Printlevel                                  ...      1
Contraction scheme used                     ... SEGMENTED contraction
Prescreening option                         ... SCHWARTZ
   Thresh                                   ... 2.500e-11
   Tcut                                     ... 2.500e-12
   Tpresel                                  ... 2.500e-12 
Coulomb Range Separation                    ... NOT USED
Exchange Range Separation                   ... NOT USED
Multipole approximations                    ... NOT USED
Finite Nucleus Model                        ... NOT USED
CABS basis                                  ... NOT available
Auxiliary Coulomb fitting basis             ... AVAILABLE
   # of basis functions in Aux-J            ...    605
   # of shells in Aux-J                     ...    195
   Maximum angular momentum in Aux-J        ...      4
Auxiliary J/K fitting basis                 ... NOT available
Auxiliary Correlation fitting basis         ... NOT available
Auxiliary 'external' fitting basis          ... NOT available

Checking pre-screening integrals            ... done (  0.0 sec) Dimension = 84
   => SHARK Basis and OBASIS are compatible. Storing Pre-screening
Shell pair information
Shell pair cut-off parameter TPreSel        ...   2.5e-12
Total number of shell pairs                 ...      3570
Shell pairs after pre-screening             ...      3233
Total number of primitive shell pairs       ...     13364
Primitive shell pairs kept                  ...      8591
          la=0 lb=0:    928 shell pairs
          la=1 lb=0:   1151 shell pairs
          la=1 lb=1:    377 shell pairs
          la=2 lb=0:    436 shell pairs
          la=2 lb=1:    282 shell pairs
          la=2 lb=2:     59 shell pairs

Checking whether 4 symmetric matrices of dimension 184 fit in memory
:Max Core in MB      =   3000.00
 MB in use           =      6.67
 MB left             =   2993.33
 MB needed           =      0.52
 Data fit in memory  = YES
Calculating RI/J V-Matrix + Cholesky decomp.... done (  0.0 sec)
Calculating Nuclear repulsion               ... done (  0.0 sec) ENN=    552.330815673334 Eh

Diagonalization of the overlap matrix:
Smallest eigenvalue                        ... 2.548e-04
Time for diagonalization                   ...    0.002 sec
Threshold for overlap eigenvalues          ... 1.000e-07
Number of eigenvalues below threshold      ... 0
Time for construction of square roots      ...    0.002 sec
Total time needed                          ...    0.004 sec

-------------------
DFT GRID GENERATION
-------------------

General Integration Accuracy     IntAcc      ... 4.388
Radial Grid Type                 RadialGrid  ... OptM3 with GC (2021)
Angular Grid (max. ang.)         AngularGrid ... 4 (Lebedev-302)
Angular grid pruning method      GridPruning ... 4 (adaptive)
Weight generation scheme         WeightScheme... mBecke (2022)
Basis function cutoff            BFCut       ... 1.0000e-11
Integration weight cutoff        WCut        ... 1.0000e-14
Partially contracted basis set               ... off
Rotationally invariant grid construction     ... off
Angular grids for H and He will be reduced by one unit

Total number of grid points                  ...    85398
Total number of batches                      ...     1345
Average number of points per batch           ...       63
Average number of grid points per atom       ...     5023

--------------------
COSX GRID GENERATION
--------------------

GRIDX 1
-------
General Integration Accuracy     IntAcc      ... 3.816
Radial Grid Type                 RadialGrid  ... OptM3 with GC (2021)
Angular Grid (max. ang.)         AngularGrid ... 1 (Lebedev-50)
Angular grid pruning method      GridPruning ... 4 (adaptive)
Weight generation scheme         WeightScheme... mBecke (2022)
Basis function cutoff            BFCut       ... 1.0000e-11
Integration weight cutoff        WCut        ... 1.0000e-14
Partially contracted basis set               ... on
Rotationally invariant grid construction     ... off
Angular grids for H and He will be reduced by one unit

Total number of grid points                  ...    10873
Total number of batches                      ...       93
Average number of points per batch           ...      116
Average number of grid points per atom       ...      640
UseSFitting                                  ... on

GRIDX 2
-------
General Integration Accuracy     IntAcc      ... 4.020
Radial Grid Type                 RadialGrid  ... OptM3 with GC (2021)
Angular Grid (max. ang.)         AngularGrid ... 2 (Lebedev-110)
Angular grid pruning method      GridPruning ... 4 (adaptive)
Weight generation scheme         WeightScheme... mBecke (2022)
Basis function cutoff            BFCut       ... 1.0000e-11
Integration weight cutoff        WCut        ... 1.0000e-14
Partially contracted basis set               ... on
Rotationally invariant grid construction     ... off
Angular grids for H and He will be reduced by one unit

Total number of grid points                  ...    24260
Total number of batches                      ...      198
Average number of points per batch           ...      122
Average number of grid points per atom       ...     1427
UseSFitting                                  ... on

GRIDX 3
-------
General Integration Accuracy     IntAcc      ... 4.338
Radial Grid Type                 RadialGrid  ... OptM3 with GC (2021)
Angular Grid (max. ang.)         AngularGrid ... 3 (Lebedev-194)
Angular grid pruning method      GridPruning ... 4 (adaptive)
Weight generation scheme         WeightScheme... mBecke (2022)
Basis function cutoff            BFCut       ... 1.0000e-11
Integration weight cutoff        WCut        ... 1.0000e-14
Partially contracted basis set               ... on
Rotationally invariant grid construction     ... off
Angular grids for H and He will be reduced by one unit

Total number of grid points                  ...    53496
Total number of batches                      ...      428
Average number of points per batch           ...      124
Average number of grid points per atom       ...     3147
UseSFitting                                  ... on
Grids setup in   0.6 sec
Initializing property integral containers    ... done (  0.0 sec)

SHARK setup successfully completed in   0.7 seconds

Maximum memory used throughout the entire STARTUP-calculation: 22.5 MB


           ************************************************************
           *        Program running with 8 parallel MPI-processes     *
           *              working on a common directory               *
           ************************************************************
-------------------------------------------------------------------------------
                                 ORCA GUESS
                   Start orbitals & Density for SCF / CASSCF
-------------------------------------------------------------------------------

------------
SCF SETTINGS
------------
Hamiltonian:
 Density Functional     Method          .... DFT(GTOs)
 Exchange Functional    Exchange        .... B88
   X-Alpha parameter    XAlpha          ....  0.666667
   Becke's b parameter  XBeta           ....  0.004200
 Correlation Functional Correlation     .... LYP
 LDA part of GGA corr.  LDAOpt          .... VWN-5
 Gradients option       PostSCFGGA      .... off
 Hybrid DFT is turned on
   Fraction HF Exchange ScalHFX         ....  0.200000
   Scaling of DF-GGA-X  ScalDFX         ....  0.720000
   Scaling of DF-GGA-C  ScalDFC         ....  0.810000
   Scaling of DF-LDA-C  ScalLDAC        ....  1.000000
   Perturbative correction              ....  0.000000
   NL short-range parameter             ....  4.800000
 RI-approximation to the Coulomb term is turned on
   Number of AuxJ basis functions       .... 605
   RIJ-COSX (HFX calculated with COS-X)).... on


General Settings:
 Integral files         IntName         .... CMR_GOLD_055_correct_opt_pal8_clean
 Hartree-Fock type      HFTyp           .... RHF
 Total Charge           Charge          ....    0
 Multiplicity           Mult            ....    1
 Number of Electrons    NEL             ....   76
 Basis Dimension        Dim             ....  184
 Nuclear Repulsion      ENuc            ....    552.3308156733 Eh

Convergence Acceleration:
 AO-DIIS                CNVDIIS         .... on
   Start iteration      DIISMaxIt       ....    12
   Startup error        DIISStart       ....  0.200000
   # of expansion vecs  DIISMaxEq       ....     5
   Bias factor          DIISBfac        ....   1.050
   Max. coefficient     DIISMaxC        ....  10.000
 MO-DIIS                CNVKDIIS        .... off
 Trust-Rad. Augm. Hess. CNVTRAH         .... auto
   Auto Start mean grad. ratio tolernc. ....  1.125000
   Auto Start start iteration           ....    50
   Auto Start num. interpolation iter.  ....    10
   Max. Number of Micro iterations      ....    24
   Max. Number of Macro iterations      .... Maxiter - #DIIS iter
   Number of Davidson start vectors     ....     2
   Converg. threshold    (grad. norm)   ....   1.000e-05
   Grad. Scal. Fac. for Micro threshold ....   0.100
   Minimum threshold for Micro iter.    ....   1.000e-02
   NR start threshold (gradient norm)   ....   1.000e-04
   Initial trust radius                 ....   0.400
   Minimum AH scaling param. (alpha)    ....   1.000
   Maximum AH scaling param. (alpha)    .... 1000.000
   Quad. conv. algorithm                .... NR
   White noise on init. David. guess    .... on
   Maximum white noise                  ....   0.010
   Pseudo random numbers                .... off
   Inactive MOs                         .... canonical
   Orbital update algorithm             .... Taylor
   Preconditioner                       .... Diag
   Full preconditioner red. dimension   ....   250
 SOSCF                 CNVSOSCF           .... on
   Start iteration     SOSCFMaxIt         ....   150
   Startup grad/error  SOSCFStart         ....  0.003300
   Hessian update      SOSCFHessUp        .... L-BFGS
   Autom. constraints  SOSCFAutoConstrain .... off
 Level Shifting         CNVShift        .... on
   Level shift para.    LevelShift      ....    0.2500
   Turn off err/grad.   ShiftErr        ....    0.0010
 Zerner damping         CNVZerner       .... off
 Static damping         CNVDamp         .... on
   Fraction old density DampFac         ....    0.7000
   Max. Damping (<1)    DampMax         ....    0.9800
   Min. Damping (>=0)   DampMin         ....    0.0000
   Turn off err/grad.   DampErr         ....    0.1000

SCF Procedure:
 Maximum # iterations   MaxIter         ....   125
 SCF integral mode      SCFMode         .... Direct
   Integral package                     .... SHARK and LIBINT hybrid scheme
 Reset frequency        DirectResetFreq ....    20
 Integral Threshold     Thresh          ....  2.500e-11 Eh
 Primitive CutOff       TCut            ....  2.500e-12 Eh

Convergence Tolerance:
 Convergence Check Mode ConvCheckMode   .... Total+1el-Energy
 Convergence forced     ConvForced      .... 0
 Energy Change          TolE            ....  1.000e-08 Eh
 1-El. energy change                    ....  1.000e-05 Eh
 Orbital Gradient       TolG            ....  1.000e-05
 Orbital Rotation angle TolX            ....  1.000e-05
 DIIS Error             TolErr          ....  5.000e-07

------------------------------
INITIAL GUESS: MODEL POTENTIAL
------------------------------
Loading Hartree-Fock densities                     ... done
Calculating cut-offs                               ... done
Initializing the effective Hamiltonian             ... done
Setting up the integral package (SHARK)            ... done
Starting the Coulomb interaction                   ... done (   0.0 sec)
Making the grid                                    ... done (   0.1 sec)
Mapping shells                                     ... done
Starting the XC term evaluation                    ... done (   0.0 sec)
  promolecular density results
     # of electrons  =     75.993645548
     EX              =    -64.449551609
     EC              =     -2.609559711
     EX+EC           =    -67.059111320
Transforming the Hamiltonian                       ... done (   0.0 sec)
Diagonalizing the Hamiltonian                      ... done (   0.0 sec)
Back transforming the eigenvectors                 ... done (   0.0 sec)
Now organizing SCF variables                       ... done
                      ------------------
                      INITIAL GUESS DONE (   0.2 sec)
                      ------------------
             **** ENERGY FILE WAS UPDATED (CMR_GOLD_055_correct_opt_pal8_clean.en.tmp) ****
Finished Guess after   0.3 sec
Maximum memory used throughout the entire GUESS-calculation: 9.5 MB


           ************************************************************
           *        Program running with 8 parallel MPI-processes     *
           *              working on a common directory               *
           ************************************************************

-------------------------------------------------------------------------------------------
                                      ORCA LEAN-SCF
                              memory conserving SCF solver
-------------------------------------------------------------------------------------------

--------------------
CPCM SOLVATION MODEL
--------------------
CPCM parameters:
  Epsilon                                         ...      80.1510
  Refrac                                          ...       1.3328
  Rsolv                                           ...       1.3000
  Surface type                                    ... GAUSSIAN VDW
  Discretization scheme                           ... Constant charge density
    Threshold for H atoms                         ...       5.0000 (charges/Ang^2)
    Threshold for non-H atoms                     ...       5.0000 (charges/Ang^2)
  Epsilon function type                           ...         CPCM
Solvent:                                          ... WATER
Radii:
  Scheme                                          ... Element-dependent radii
  Radius for O  used is    3.4469 Bohr (=   1.8240 Ang.)
  Radius for C  used is    3.8550 Bohr (=   2.0400 Ang.)
  Radius for H  used is    2.4944 Bohr (=   1.3200 Ang.)
Calculating surface                               ...        done! (  0.0s)
Cavity surface points                             ...         1720
Cavity Volume                                     ...    1169.3211
Cavity Surface-area                               ...     634.9827
Calculating surface distance matrix               ...        done! (  0.0s)
Performing Cholesky decomposition & store         ...        done! (  0.0s)
Overall time for CPCM initialization              ...                 0.1s

----------------------------------------D-I-I-S--------------------------------------------
Iteration    Energy (Eh)           Delta-E    RMSDP     MaxDP     DIISErr   Damp  Time(sec)
-------------------------------------------------------------------------------------------
               ***  Starting incremental Fock matrix formation  ***
    1    -496.1545573780786071     0.00e+00  1.08e-02  1.01e-01  2.72e-01  0.700   0.6
    2    -496.2662357776771387    -1.12e-01  7.06e-03  6.13e-02  1.06e-01  0.700   0.4
                               ***Turning on AO-DIIS***
    3    -496.3091369541380118    -4.29e-02  3.17e-03  1.73e-02  3.66e-02  0.700   0.4
    4    -496.3359672665310427    -2.68e-02  5.95e-03  2.95e-02  1.89e-02  0.000   0.4
    5    -496.3947402048220283    -5.88e-02  8.50e-04  6.18e-03  6.05e-03  0.000   0.4
                              *** Initializing SOSCF ***
---------------------------------------S-O-S-C-F--------------------------------------
Iteration    Energy (Eh)           Delta-E    RMSDP     MaxDP     MaxGrad    Time(sec)
--------------------------------------------------------------------------------------
    6    -496.3951139397904626    -3.74e-04  2.72e-04  1.71e-03  1.14e-03     0.5
               *** Restarting incremental Fock matrix formation ***
    7    -496.3951772968316618    -6.34e-05  1.95e-04  1.17e-03  2.06e-04     0.6
    8    -496.3951775085447480    -2.12e-07  7.58e-05  6.11e-04  2.48e-04     0.5
    9    -496.3951806685097381    -3.16e-06  4.52e-05  2.98e-04  6.09e-05     0.5
   10    -496.3951806240231690     4.45e-08  2.25e-05  1.74e-04  6.64e-05     0.5
   11    -496.3951808877714029    -2.64e-07  1.27e-05  8.22e-05  1.87e-05     0.4
   12    -496.3951808791489384     8.62e-09  6.99e-06  5.17e-05  2.26e-05     0.6
                 **** Energy Check signals convergence ****

               *****************************************************
               *                     SUCCESS                       *
               *           SCF CONVERGED AFTER  12 CYCLES          *
               *****************************************************

Recomputing exchange energy using gridx3       ... done (    0.927 sec)
Old exchange energy                            :    -13.029253040 Eh
New exchange energy                            :    -13.029301139 Eh
Exchange energy change after final integration :     -0.000048099 Eh
Total energy after final integration           :   -496.395229002 Eh
             **** ENERGY FILE WAS UPDATED (CMR_GOLD_055_correct_opt_pal8_clean.en.tmp) ****

----------------
TOTAL SCF ENERGY
----------------

Total Energy       :       -496.39522900169430 Eh          -13507.60089 eV

Components:
Nuclear Repulsion  :        552.33081567333397 Eh           15029.68559 eV
Electronic Energy  :      -1048.71158530050889 Eh          -28536.89302 eV
One Electron Energy:      -1768.32024133442837 Eh          -48118.44006 eV
Two Electron Energy:        719.60865603391937 Eh           19581.54704 eV
CPCM Dielectric    :         -0.01441127563278 Eh              -0.39215 eV

Virial components:
Potential Energy   :       -988.17306965947182 Eh          -26889.55626 eV
Kinetic Energy     :        491.77784065777746 Eh           13381.95537 eV
Virial Ratio       :          2.00938917527829

DFT components:
N(Alpha)           :       38.000018072762 electrons
N(Beta)            :       38.000018072762 electrons
N(Total)           :       76.000036145525 electrons
E(X)               :      -51.812437800243 Eh       
E(C)               :       -3.075179056163 Eh       
E(XC)              :      -54.887616856406 Eh       

CPCM Solvation Model Properties:
Surface-charge          :         -0.01700157599015
Corrected charge        :         -0.00000000000000
Outlying charge corr.   :          0.00002047173762 Eh               0.00056 eV
Free-energy (cav+disp)  :  This term is not implemented in the current solvation scheme

---------------
SCF CONVERGENCE
---------------

  Last Energy change         ...   -8.6225e-09  Tolerance :   1.0000e-08
  Last MAX-Density change    ...    5.1657e-05  Tolerance :   1.0000e-07
  Last RMS-Density change    ...    6.9878e-06  Tolerance :   5.0000e-09
  Last DIIS Error            ...    1.1442e-03  Tolerance :   5.0000e-07
  Last Orbital Gradient      ...    2.2617e-05  Tolerance :   1.0000e-05
  Last Orbital Rotation      ...    3.7433e-05  Tolerance :   1.0000e-05


----------------
ORBITAL ENERGIES
----------------

  NO   OCC          E(Eh)            E(eV) 
   0   2.0000     -19.200955      -522.4846 
   1   2.0000     -19.124592      -520.4066 
   2   2.0000     -10.324771      -280.9513 
   3   2.0000     -10.267315      -279.3878 
   4   2.0000     -10.222371      -278.1649 
   5   2.0000     -10.210692      -277.8470 
   6   2.0000     -10.205206      -277.6978 
   7   2.0000     -10.202785      -277.6319 
   8   2.0000     -10.202357      -277.6202 
   9   2.0000     -10.198225      -277.5078 
  10   2.0000     -10.194714      -277.4123 
  11   2.0000      -1.107347       -30.1325 
  12   2.0000      -1.024491       -27.8778 
  13   2.0000      -0.866129       -23.5686 
  14   2.0000      -0.818521       -22.2731 
  15   2.0000      -0.757092       -20.6015 
  16   2.0000      -0.746529       -20.3141 
  17   2.0000      -0.654889       -17.8204 
  18   2.0000      -0.646729       -17.5984 
  19   2.0000      -0.619880       -16.8678 
  20   2.0000      -0.560070       -15.2403 
  21   2.0000      -0.528311       -14.3761 
  22   2.0000      -0.499996       -13.6056 
  23   2.0000      -0.478955       -13.0330 
  24   2.0000      -0.471613       -12.8332 
  25   2.0000      -0.454071       -12.3559 
  26   2.0000      -0.445818       -12.1313 
  27   2.0000      -0.439134       -11.9494 
  28   2.0000      -0.421874       -11.4798 
  29   2.0000      -0.395873       -10.7723 
  30   2.0000      -0.388175       -10.5628 
  31   2.0000      -0.372978       -10.1492 
  32   2.0000      -0.356124        -9.6906 
  33   2.0000      -0.346089        -9.4176 
  34   2.0000      -0.321226        -8.7410 
  35   2.0000      -0.289359        -7.8738 
  36   2.0000      -0.257523        -7.0076 
  37   2.0000      -0.241727        -6.5777 
  38   0.0000      -0.070739        -1.9249 
  39   0.0000      -0.015596        -0.4244 
  40   0.0000      -0.002668        -0.0726 
  41   0.0000       0.073272         1.9938 
  42   0.0000       0.080873         2.2007 
  43   0.0000       0.084961         2.3119 
  44   0.0000       0.112996         3.0748 
  45   0.0000       0.131399         3.5756 
  46   0.0000       0.144810         3.9405 
  47   0.0000       0.150657         4.0996 
  48   0.0000       0.167237         4.5507 
*Only the first 10 virtual orbitals were printed.

                    ********************************
                    * MULLIKEN POPULATION ANALYSIS *
                    ********************************

-----------------------
MULLIKEN ATOMIC CHARGES
-----------------------
   0 O :   -0.243644
   1 C :    0.225142
   2 O :   -0.257957
   3 C :    0.181513
   4 C :    0.008849
   5 C :   -0.023135
   6 C :    0.021074
   7 C :    0.020901
   8 C :   -0.029684
   9 C :    0.110107
  10 C :   -0.091905
  11 H :    0.004799
  12 H :    0.008636
  13 H :    0.016612
  14 H :   -0.000223
  15 H :    0.024475
  16 H :    0.024440
Sum of atomic charges:   -0.0000000

--------------------------------
MULLIKEN REDUCED ORBITAL CHARGES
--------------------------------
  0 O s       :     3.703570  s :     3.703570
      pz      :     1.432081  p :     4.522186
      px      :     1.495568
      py      :     1.594537
      dz2     :     0.002027  d :     0.017887
      dxz     :     0.003355
      dyz     :     0.002260
      dx2y2   :     0.004028
      dxy     :     0.006217

  1 C s       :     3.031419  s :     3.031419
      pz      :     0.842992  p :     2.617508
      px      :     0.815058
      py      :     0.959458
      dz2     :     0.007275  d :     0.125931
      dxz     :     0.021735
      dyz     :     0.012953
      dx2y2   :     0.051374
      dxy     :     0.032594

  2 O s       :     3.719915  s :     3.719915
      pz      :     1.698833  p :     4.522335
      px      :     1.187241
      py      :     1.636260
      dz2     :     0.002184  d :     0.015707
      dxz     :     0.002584
      dyz     :     0.001917
      dx2y2   :     0.002488
      dxy     :     0.006534

  3 C s       :     3.000466  s :     3.000466
      pz      :     0.977895  p :     2.746268
      px      :     0.796678
      py      :     0.971696
      dz2     :     0.005380  d :     0.071752
      dxz     :     0.012293
      dyz     :     0.008922
      dx2y2   :     0.020752
      dxy     :     0.024404

  4 C s       :     3.070735  s :     3.070735
      pz      :     1.039730  p :     2.879326
      px      :     0.855955
      py      :     0.983641
      dz2     :     0.003243  d :     0.041091
      dxz     :     0.006163
      dyz     :     0.005597
      dx2y2   :     0.014962
      dxy     :     0.011127

  5 C s       :     3.261706  s :     3.261706
      pz      :     0.962823  p :     2.726641
      px      :     0.933990
      py      :     0.829828
      dz2     :     0.002573  d :     0.034787
      dxz     :     0.006829
      dyz     :     0.002365
      dx2y2   :     0.012166
      dxy     :     0.010855

  6 C s       :     3.174061  s :     3.174061
      pz      :     0.994857  p :     2.770306
      px      :     0.865587
      py      :     0.909862
      dz2     :     0.002469  d :     0.034560
      dxz     :     0.003580
      dyz     :     0.004835
      dx2y2   :     0.011310
      dxy     :     0.012365

  7 C s       :     3.179184  s :     3.179184
      pz      :     0.952523  p :     2.764481
      px      :     0.885927
      py      :     0.926031
      dz2     :     0.002483  d :     0.035433
      dxz     :     0.003535
      dyz     :     0.005759
      dx2y2   :     0.011240
      dxy     :     0.012416

  8 C s       :     3.277857  s :     3.277857
      pz      :     1.014762  p :     2.718935
      px      :     0.931979
      py      :     0.772194
      dz2     :     0.002599  d :     0.032892
      dxz     :     0.005941
      dyz     :     0.002683
      dx2y2   :     0.011345
      dxy     :     0.010324

  9 C s       :     3.190621  s :     3.190621
      pz      :     0.884068  p :     2.663037
      px      :     0.939518
      py      :     0.839452
      dz2     :     0.002534  d :     0.036234
      dxz     :     0.007621
      dyz     :     0.002826
      dx2y2   :     0.012586
      dxy     :     0.010669

 10 C s       :     3.239787  s :     3.239787
      pz      :     1.040751  p :     2.821411
      px      :     0.872395
      py      :     0.908265
      dz2     :     0.002587  d :     0.030707
      dxz     :     0.003839
      dyz     :     0.002686
      dx2y2   :     0.013231
      dxy     :     0.008365

 11 H s       :     0.971826  s :     0.971826
      pz      :     0.004403  p :     0.023376
      px      :     0.003338
      py      :     0.015635

 12 H s       :     0.968078  s :     0.968078
      pz      :     0.004554  p :     0.023286
      px      :     0.012072
      py      :     0.006660

 13 H s       :     0.960203  s :     0.960203
      pz      :     0.004285  p :     0.023185
      px      :     0.012948
      py      :     0.005952

 14 H s       :     0.976806  s :     0.976806
      pz      :     0.004548  p :     0.023417
      px      :     0.003207
      py      :     0.015662

 15 H s       :     0.952252  s :     0.952252
      pz      :     0.003717  p :     0.023273
      px      :     0.003435
      py      :     0.016121

 16 H s       :     0.952025  s :     0.952025
      pz      :     0.004564  p :     0.023534
      px      :     0.014111
      py      :     0.004860



                     *******************************
                     * LOEWDIN POPULATION ANALYSIS *
                     *******************************

----------------------
LOEWDIN ATOMIC CHARGES
----------------------
   0 O :   -0.213436
   1 C :    0.092387
   2 O :   -0.057236
   3 C :    0.072052
   4 C :   -0.064055
   5 C :    0.001015
   6 C :   -0.032430
   7 C :   -0.000093
   8 C :   -0.040030
   9 C :    0.050929
  10 C :   -0.072851
  11 H :    0.041814
  12 H :    0.038644
  13 H :    0.041154
  14 H :    0.042824
  15 H :    0.051418
  16 H :    0.047894

-------------------------------
LOEWDIN REDUCED ORBITAL CHARGES
-------------------------------
  0 O s       :     3.540127  s :     3.540127
      pz      :     1.424658  p :     4.642930
      px      :     1.575714
      py      :     1.642558
      dz2     :     0.004344  d :     0.030379
      dxz     :     0.004266
      dyz     :     0.002844
      dx2y2   :     0.005983
      dxy     :     0.012942

  1 C s       :     2.854305  s :     2.854305
      pz      :     0.837751  p :     2.771135
      px      :     0.890444
      py      :     1.042940
      dz2     :     0.016479  d :     0.282174
      dxz     :     0.041842
      dyz     :     0.024304
      dx2y2   :     0.121525
      dxy     :     0.078024

  2 O s       :     3.440772  s :     3.440772
      pz      :     1.673685  p :     4.585642
      px      :     1.259275
      py      :     1.652682
      dz2     :     0.004161  d :     0.030822
      dxz     :     0.004941
      dyz     :     0.001996
      dx2y2   :     0.006552
      dxy     :     0.013171

  3 C s       :     2.839093  s :     2.839093
      pz      :     0.966942  p :     2.920660
      px      :     0.923747
      py      :     1.029970
      dz2     :     0.011757  d :     0.168196
      dxz     :     0.024270
      dyz     :     0.018142
      dx2y2   :     0.053057
      dxy     :     0.060969

  4 C s       :     2.841540  s :     2.841540
      pz      :     1.012965  p :     3.113391
      px      :     1.047141
      py      :     1.053285
      dz2     :     0.007989  d :     0.109124
      dxz     :     0.012090
      dyz     :     0.011701
      dx2y2   :     0.043340
      dxy     :     0.034004

  5 C s       :     2.861072  s :     2.861072
      pz      :     0.950101  p :     3.047422
      px      :     1.053180
      py      :     1.044141
      dz2     :     0.006130  d :     0.090491
      dxz     :     0.014742
      dyz     :     0.003990
      dx2y2   :     0.034611
      dxy     :     0.031018

  6 C s       :     2.859829  s :     2.859829
      pz      :     0.977644  p :     3.082645
      px      :     1.050708
      py      :     1.054293
      dz2     :     0.006130  d :     0.089955
      dxz     :     0.006837
      dyz     :     0.010132
      dx2y2   :     0.032321
      dxy     :     0.034536

  7 C s       :     2.862944  s :     2.862944
      pz      :     0.936224  p :     3.046312
      px      :     1.049124
      py      :     1.060964
      dz2     :     0.006011  d :     0.090837
      dxz     :     0.006657
      dyz     :     0.012176
      dx2y2   :     0.031732
      dxy     :     0.034261

  8 C s       :     2.862206  s :     2.862206
      pz      :     0.996261  p :     3.090386
      px      :     1.049519
      py      :     1.044606
      dz2     :     0.006517  d :     0.087438
      dxz     :     0.012853
      dyz     :     0.004405
      dx2y2   :     0.032863
      dxy     :     0.030800

  9 C s       :     2.866564  s :     2.866564
      pz      :     0.873954  p :     2.989582
      px      :     1.056701
      py      :     1.058927
      dz2     :     0.006243  d :     0.092925
      dxz     :     0.016142
      dyz     :     0.004736
      dx2y2   :     0.035507
      dxy     :     0.030297

 10 C s       :     2.876923  s :     2.876923
      pz      :     1.015887  p :     3.110988
      px      :     1.066290
      py      :     1.028811
      dz2     :     0.007119  d :     0.084940
      dxz     :     0.006650
      dyz     :     0.006210
      dx2y2   :     0.038561
      dxy     :     0.026399

 11 H s       :     0.889197  s :     0.889197
      pz      :     0.013881  p :     0.068989
      px      :     0.010676
      py      :     0.044431

 12 H s       :     0.892481  s :     0.892481
      pz      :     0.014456  p :     0.068875
      px      :     0.034276
      py      :     0.020144

 13 H s       :     0.890376  s :     0.890376
      pz      :     0.013518  p :     0.068470
      px      :     0.036665
      py      :     0.018287

 14 H s       :     0.886742  s :     0.886742
      pz      :     0.014876  p :     0.070434
      px      :     0.010624
      py      :     0.044933

 15 H s       :     0.880123  s :     0.880123
      pz      :     0.011600  p :     0.068459
      px      :     0.010951
      py      :     0.045908

 16 H s       :     0.880753  s :     0.880753
      pz      :     0.015567  p :     0.071352
      px      :     0.039996
      py      :     0.015789



                      *****************************
                      * MAYER POPULATION ANALYSIS *
                      *****************************

  NA   - Mulliken gross atomic population
  ZA   - Total nuclear charge
  QA   - Mulliken gross atomic charge
  VA   - Mayer's total valence
  BVA  - Mayer's bonded valence
  FA   - Mayer's free valence

  ATOM       NA         ZA         QA         VA         BVA        FA
  0 O      8.2436     8.0000    -0.2436     2.2738     2.2738    -0.0000
  1 C      5.7749     6.0000     0.2251     4.2765     4.2765    -0.0000
  2 O      8.2580     8.0000    -0.2580     2.2349     2.2349     0.0000
  3 C      5.8185     6.0000     0.1815     3.8824     3.8824     0.0000
  4 C      5.9912     6.0000     0.0088     3.8206     3.8206    -0.0000
  5 C      6.0231     6.0000    -0.0231     3.8103     3.8103    -0.0000
  6 C      5.9789     6.0000     0.0211     3.7812     3.7812     0.0000
  7 C      5.9791     6.0000     0.0209     3.7963     3.7963     0.0000
  8 C      6.0297     6.0000    -0.0297     3.8264     3.8264    -0.0000
  9 C      5.8899     6.0000     0.1101     3.7725     3.7725    -0.0000
 10 C      6.0919     6.0000    -0.0919     3.7775     3.7775    -0.0000
 11 H      0.9952     1.0000     0.0048     0.9875     0.9875    -0.0000
 12 H      0.9914     1.0000     0.0086     0.9805     0.9805    -0.0000
 13 H      0.9834     1.0000     0.0166     0.9802     0.9802     0.0000
 14 H      1.0002     1.0000    -0.0002     0.9952     0.9952    -0.0000
 15 H      0.9755     1.0000     0.0245     0.9875     0.9875     0.0000
 16 H      0.9756     1.0000     0.0244     0.9992     0.9992    -0.0000

  Mayer bond orders larger than 0.100000
B(  0-O ,  1-C ) :   2.0997 B(  1-C ,  2-O ) :   1.0255 B(  1-C , 10-C ) :   1.0672 
B(  2-O ,  3-C ) :   1.0886 B(  3-C ,  4-C ) :   1.2814 B(  3-C ,  8-C ) :   1.3589 
B(  4-C ,  5-C ) :   1.2968 B(  4-C ,  9-C ) :   1.1315 B(  5-C ,  6-C ) :   1.4011 
B(  5-C , 11-H ) :   0.9972 B(  6-C ,  7-C ) :   1.3255 B(  6-C , 12-H ) :   0.9933 
B(  7-C ,  8-C ) :   1.3754 B(  7-C , 13-H ) :   0.9896 B(  8-C , 14-H ) :   0.9970 
B(  9-C , 10-C ) :   1.6176 B(  9-C , 15-H ) :   0.9783 B( 10-C , 16-H ) :   0.9742 


-------
TIMINGS
-------

Total SCF time: 0 days 0 hours 0 min 7 sec 

Total time                  ....       7.748 sec
Sum of individual times     ....       7.082 sec  ( 91.4%)

SCF preparation             ....       0.185 sec  (  2.4%)
Fock matrix formation       ....       6.035 sec  ( 77.9%)
  Startup                   ....       0.029 sec  (  0.5% of F)
  Split-RI-J                ....       0.487 sec  (  8.1% of F)
  Chain of spheres X        ....       3.603 sec  ( 59.7% of F)
  XC integration            ....       1.171 sec  ( 19.4% of F)
    Basis function eval.    ....       0.309 sec  ( 26.4% of XC)
    Density eval.           ....       0.141 sec  ( 12.0% of XC)
    XC-Functional eval.     ....       0.028 sec  (  2.4% of XC)
    XC-Potential eval.      ....       0.199 sec  ( 17.0% of XC)
  CPCM terms                ....       0.958 sec  ( 15.9% of F)
Diagonalization             ....       0.000 sec  (  0.0%)
Density matrix formation    ....       0.215 sec  (  2.8%)
Total Energy calculation    ....       0.097 sec  (  1.3%)
Population analysis         ....       0.044 sec  (  0.6%)
Orbital Transformation      ....       0.039 sec  (  0.5%)
Orbital Orthonormalization  ....       0.000 sec  (  0.0%)
DIIS solution               ....       0.236 sec  (  3.0%)
SOSCF solution              ....       0.231 sec  (  3.0%)
Finished LeanSCF after   7.9 sec

Maximum memory used throughout the entire LEANSCF-calculation: 15.2 MB


           ************************************************************
           *        Program running with 8 parallel MPI-processes     *
           *              working on a common directory               *
           ************************************************************

------------------------------------------------------------------------------
                         ORCA PROPERTY INTEGRAL CALCULATIONS
------------------------------------------------------------------------------

GBWName                                   ... CMR_GOLD_055_correct_opt_pal8_clean.gbw
Number of atoms                           ...     17
Number of basis functions                 ...    184
Max core memory                           ...   3000 MB

Dipole integrals                          ... YES
Quadrupole integrals                      ...  NO
Linear momentum integrals                 ...  NO
Angular momentum integrals                ...  NO
Higher moments length integrals           ...  NO
Higher moments velocity integrals         ...  NO
Kinetic energy integrals                  ...  NO
GIAO right hand sides                     ...  NO
GIAO dipole derivative integrals          ...  NO
SOC integrals                             ...  NO
EPR diamagnetic integrals (GIAO)          ...  NO
EPR gauge integrals                       ...  NO
Field gradient integrals                  ...  NO (   0 nuclei)
Spin-dipole/Fermi contact integrals       ...  NO (   0 nuclei)
Contact density integrals                 ...  NO (   0 nuclei)
Nucleus-orbit integrals                   ...  NO (   0 nuclei)
Geometric perturbations                   ...  NO (  17 nuclei)

Choice of electric origin   ... Center of mass
Position of electric origin ... ( -0.7863,  0.6112, -0.0346) 
Choice of magnetic origin   ... GIAO
Position of magnetic origin ... (  0.0000,  0.0000,  0.0000) 

Calculating integrals                     ... Electric Dipole (Length)     done (  0.0 sec)

Property integrals calculated in   0.0 sec

Maximum memory used throughout the entire PROPINT-calculation: 9.8 MB


-------------------------------------------------------------------------------
                          DFT DISPERSION CORRECTION                            
                                                                               
                              DFTD3 V3.1  Rev 1                                
                          USING Becke-Johnson damping                          
-------------------------------------------------------------------------------
The B3LYP functional is recognized
Active option DFTDOPT                   ...         4   

molecular C6(AA) [au] = 3888.868703 


            DFT-D V3
 parameters
 s6 scaling factor         :     1.0000 
 a1 scaling factor         :     0.3981 
 s8 scaling factor         :     1.9889 
 a2 scaling factor         :     4.4211 
 ad hoc parameters k1-k3   :    16.0000     1.3333    -4.0000 

 Edisp/kcal,au: -21.267117887492  -0.033891306025 
 E6   /kcal   :  -9.713605809 
 E8   /kcal   : -11.553512079 
 % E8         :  54.325706660 

-------------------------   ----------------
Dispersion correction           -0.033891306
-------------------------   ----------------


-------------------------   --------------------
FINAL SINGLE POINT ENERGY      -496.429120307719
-------------------------   --------------------



           ************************************************************
           *        Program running with 8 parallel MPI-processes     *
           *              working on a common directory               *
           ************************************************************
------------------------------------------------------------------------------
                         ORCA SCF GRADIENT CALCULATION
------------------------------------------------------------------------------

Nuc. rep. gradient        (SHARK) ... done (  0.0 sec)
HCore & Overlap gradient  (SHARK) ... done (  0.0 sec)
Split-RIJ-J gradient      (SHARK) ... done (  0.1 sec)
COSX-gradient                     ... done (  2.3 sec)
XC gradient                       ... done (  0.5 sec)
CPCM gradient                     ... done (  0.2 sec)
Dispersion correction             ... done (  0.1 sec)

-------------------
DISPERSION GRADIENT
-------------------

   1   O   :   -0.000416802    0.000335053   -0.000018269
   2   C   :   -0.000368529    0.000190530   -0.000016420
   3   O   :   -0.000213192    0.000356249   -0.000008952
   4   C   :    0.000091093   -0.000007557    0.000004155
   5   C   :    0.000058147   -0.000159687    0.000002270
   6   C   :    0.000291310   -0.000241914    0.000012798
   7   C   :    0.000367353   -0.000132517    0.000016550
   8   C   :    0.000261316    0.000126898    0.000012286
   9   C   :    0.000375988    0.000373376    0.000018104
  10   C   :   -0.000313017   -0.000307842   -0.000015110
  11   C   :   -0.000443437   -0.000111108   -0.000020612
  12   H   :    0.000114155   -0.000306668    0.000004532
  13   H   :    0.000247211   -0.000147033    0.000011006
  14   H   :    0.000252505    0.000129824    0.000011891
  15   H   :    0.000094356    0.000301050    0.000005023
  16   H   :   -0.000153735   -0.000281790   -0.000007734
  17   H   :   -0.000244721   -0.000116864   -0.000011519

Difference to translation invariance:
           :    0.0000000000   -0.0000000000    0.0000000000

Difference to rotation invariance:
           :    0.0000000000    0.0000000000   -0.0000000000

Norm of the Dispersion gradient    ...    0.0015099020
RMS gradient                       ...    0.0002114286
MAX gradient                       ...    0.0004434373

------------------
CARTESIAN GRADIENT
------------------

   1   O   :   -0.000275346   -0.002792000   -0.000066394
   2   C   :   -0.007841277    0.003011731   -0.000296418
   3   O   :    0.008069757    0.004721870    0.000350752
   4   C   :    0.000176710   -0.002913170    0.000033315
   5   C   :    0.003007921   -0.000803094    0.000129956
   6   C   :   -0.000471054   -0.000940852   -0.000011700
   7   C   :    0.002512142   -0.001446851    0.000118115
   8   C   :    0.001698112    0.000853403    0.000084446
   9   C   :    0.000893082    0.002783424    0.000034479
  10   C   :   -0.004027237   -0.000857464   -0.000162867
  11   C   :   -0.001137348   -0.007179664   -0.000100425
  12   H   :    0.000675372    0.003815440    0.000036293
  13   H   :   -0.003645892    0.002222081   -0.000160701
  14   H   :   -0.003818009   -0.002076182   -0.000179388
  15   H   :   -0.000446099   -0.004538685   -0.000031371
  16   H   :    0.000347011    0.003831525    0.000030807
  17   H   :    0.004282154    0.002308488    0.000191101

Difference to translation invariance:
           :   -0.0000000001    0.0000000001   -0.0000000000

Difference to rotation invariance:
           :   -0.0001802225   -0.0003032044    0.0000217466

Norm of the Cartesian gradient     ...    0.0196800709
RMS gradient                       ...    0.0027557611
MAX gradient                       ...    0.0080697572

-------
TIMINGS
-------

Total SCF gradient time     ....        3.175 sec

One electron gradient       ....       0.022 sec  (  0.7%)
RI-J Coulomb gradient       ....       0.126 sec  (  4.0%)
COSX gradient               ....       2.279 sec  ( 71.8%)
XC gradient                 ....       0.490 sec  ( 15.4%)
CPCM gradient               ....       0.194 sec  (  6.1%)
   A-Matrix (El+Nuc)        ....       0.018 sec  (  0.6%)
   Potential                ....       0.176 sec  (  5.5%)

Maximum memory used throughout the entire SCFGRAD-calculation: 29.5 MB
------------------------------------------------------------------------------
                         ORCA GEOMETRY RELAXATION STEP
------------------------------------------------------------------------------

Reading the OPT-File                    .... done
Getting information on internals        .... done
Copying old internal coords+grads       .... done
Making the new internal coordinates     .... (2022 redundants) done
Validating the new internal coordinates .... (2022 redundants) done
Calculating the B-matrix                .... done
Calculating the G,G- and P matrices     .... done
Transforming gradient to internals      .... done
Projecting the internal gradient        .... done
Number of atoms                         ....  17
Number of internal coordinates          ....  86
Current Energy                          ....  -496.429120308 Eh
Current gradient norm                   ....     0.019680071 Eh/bohr
Maximum allowed component of the step   ....  0.300
Current trust radius                    ....  0.300
Evaluating the initial hessian          ....  (Almloef) done
Projecting the Hessian                  .... done
Forming the augmented Hessian           .... done
Diagonalizing the augmented Hessian     .... done
Last element of RFO vector              ....  0.999326078
Lowest eigenvalues of augmented Hessian:
 -0.000571127  0.017336520  0.019498924  0.021732900  0.023854743
Length of the computed step             ....  0.036731558
The final length of the internal step   ....  0.036731558
Converting the step to Cartesian space:
 Initial RMS(Int)=    0.0039608658
Transforming coordinates:
 Iter   0:  RMS(Cart)=    0.0063284708 RMS(Int)=    1.9161862356
done
Storing new coordinates                 .... done

                                .--------------------.
          ----------------------|Geometry convergence|-------------------------
          Item                value                   Tolerance       Converged
          ---------------------------------------------------------------------
          RMS gradient        0.0017193442            0.0001000000      NO
          MAX gradient        0.0080264761            0.0003000000      NO
          RMS step            0.0039608658            0.0020000000      NO
          MAX step            0.0150392486            0.0040000000      NO
          -------------------------------------------------------------------------
          ........................................................
          Max(Bonds)      0.0080      Max(Angles)    0.42
          Max(Dihed)        0.07      Max(Improp)    0.00
          ---------------------------------------------------------------------

The optimization has not yet converged - more geometry cycles are needed


    ---------------------------------------------------------------------------
                         Redundant Internal Coordinates
                            (Angstroem and degrees)

        Definition                    Value    dE/dq     Step     New-Value
    ----------------------------------------------------------------------------
     1. B(C   1,O   0)                1.2081 -0.001556  0.0008    1.2088   
     2. B(O   2,C   1)                1.3976  0.008026 -0.0080    1.3896   
     3. B(C   3,O   2)                1.3650  0.001093 -0.0011    1.3639   
     4. B(C   4,C   3)                1.4090 -0.001197  0.0011    1.4101   
     5. B(C   5,C   4)                1.4079 -0.001796  0.0016    1.4096   
     6. B(C   6,C   5)                1.3884 -0.002035  0.0017    1.3902   
     7. B(C   7,C   6)                1.4040 -0.002321  0.0021    1.4061   
     8. B(C   8,C   7)                1.3916 -0.002074  0.0018    1.3933   
     9. B(C   8,C   3)                1.3971 -0.001479  0.0013    1.3984   
    10. B(C   9,C   4)                1.4423  0.000584 -0.0004    1.4419   
    11. B(C  10,C   9)                1.3525 -0.003611  0.0028    1.3552   
[...]
     32      -0.000012  -0.000019   0.003800
     33      -0.019281  -0.008695   0.000306
     34      -0.356428  -0.149550  -0.001273
     35      -0.001512  -0.000663   0.000008
     36       0.626760   0.303867  -0.000552
     37      -0.389512  -0.191065   0.000516
     38       0.028590   0.013857  -0.000025
     39       0.162168   0.435490   0.002298
     40       0.090168   0.229184   0.001162
     41       0.007727   0.020729   0.000108
     42      -0.013439   0.016524   0.000075
     43      -0.533222   0.772871   0.002078
     44      -0.001721   0.002359   0.000007
     45      -0.001806  -0.001028  -0.012779
     46      -0.014918  -0.006537  -0.197351
     47      -0.000125  -0.000066  -0.001100
     48       0.001987   0.003710  -0.899815
     49       0.001042   0.001775  -0.375977
     50       0.000094   0.000173  -0.041930


-----------
IR SPECTRUM
-----------

 Mode   freq       eps      Int      T**2         TX        TY        TZ
       cm**-1   L/(mol*cm) km/mol    a.u.
----------------------------------------------------------------------------
  6:    105.14   0.000417    2.11  0.001239  ( 0.001307  0.000107 -0.035170)
  7:    161.94   0.001100    5.56  0.002120  (-0.002168 -0.000117  0.045995)
  8:    270.15   0.000087    0.44  0.000101  ( 0.000543 -0.000007 -0.010037)
  9:    309.99   0.000415    2.09  0.000417  (-0.017728 -0.010112 -0.000865)
 10:    384.03   0.000025    0.13  0.000021  ( 0.000491  0.000020 -0.004518)
 11:    455.90   0.000948    4.79  0.000649  ( 0.024802 -0.005716  0.000880)
 12:    472.09   0.001398    7.07  0.000924  (-0.001270 -0.000033  0.030376)
 13:    500.67   0.001403    7.09  0.000874  (-0.022179 -0.019534 -0.000891)
 14:    538.37   0.002701   13.65  0.001565  ( 0.036229 -0.015818  0.001611)
 15:    561.24   0.000059    0.30  0.000033  (-0.000452 -0.000008  0.005702)
 16:    626.29   0.003629   18.34  0.001808  ( 0.034362  0.024998  0.001678)
 17:    703.83   0.000670    3.39  0.000297  (-0.000897  0.000129  0.017213)
 18:    745.38   0.000793    4.01  0.000332  (-0.003707 -0.017835 -0.000024)
 19:    776.73   0.000829    4.19  0.000333  ( 0.017169  0.006068 -0.001153)
 20:    779.09   0.013724   69.36  0.005497  ( 0.003074 -0.000047 -0.074080)
 21:    788.57   0.000088    0.44  0.000035  ( 0.000252 -0.000116 -0.005885)
 22:    849.52   0.015431   77.98  0.005669  ( 0.003573  0.000129 -0.075205)
 23:    899.70   0.006060   30.63  0.002102  ( 0.044422  0.011199  0.001788)
 24:    900.23   0.000197    1.00  0.000068  (-0.000206 -0.000165 -0.008259)
 25:    946.22   0.012583   63.59  0.004150  (-0.060775  0.021192 -0.002683)
 26:    987.05   0.000721    3.64  0.000228  (-0.000523 -0.000118  0.015083)
 27:   1025.45   0.000133    0.67  0.000041  ( 0.000335 -0.000103 -0.006364)
 28:   1030.58   0.000044    0.22  0.000013  (-0.000224 -0.000128  0.003642)
 29:   1047.30   0.001209    6.11  0.000360  (-0.018733  0.002922 -0.000889)
 30:   1110.83   0.020664  104.43  0.005805  ( 0.070123  0.029624  0.003205)
 31:   1130.32   0.010564   53.38  0.002916  ( 0.050701 -0.018458  0.002269)
 32:   1156.21   0.001279    6.46  0.000345  (-0.017366 -0.006553 -0.000790)
 33:   1189.53   0.020540  103.80  0.005389  (-0.071628 -0.015729 -0.003258)
 34:   1248.64   0.003480   17.59  0.000870  ( 0.027812  0.009724  0.001277)
 35:   1275.09   0.002930   14.81  0.000717  (-0.017806  0.019985 -0.000760)
 36:   1297.24   0.015139   76.51  0.003642  (-0.048500  0.035845 -0.002160)
 37:   1388.09   0.000476    2.41  0.000107  (-0.010286  0.000999 -0.000481)
 38:   1419.46   0.006111   30.88  0.001344  (-0.020355 -0.030468 -0.000946)
 39:   1481.45   0.008925   45.10  0.001880  (-0.026160  0.034560 -0.001139)
 40:   1521.76   0.002774   14.02  0.000569  ( 0.007607  0.022601  0.000328)
 41:   1609.22   0.020509  103.65  0.003977  (-0.062874 -0.003975 -0.002884)
 42:   1660.11   0.024024  121.41  0.004516  ( 0.067131  0.000261  0.003042)
 43:   1673.87   0.039069  197.44  0.007284  ( 0.077079 -0.036477  0.003457)
 44:   1801.37   0.243699  1231.55  0.042218  ( 0.167730 -0.118459  0.007196)
 45:   3185.37   0.000023    0.12  0.000002  (-0.000024 -0.001497 -0.000008)
 46:   3188.99   0.000771    3.90  0.000075  (-0.006196 -0.006084 -0.000302)
 47:   3192.53   0.001065    5.38  0.000104  ( 0.004660  0.009076  0.000231)
 48:   3203.40   0.001859    9.39  0.000181  (-0.010338  0.008602 -0.000446)
 49:   3210.20   0.000733    3.71  0.000071  (-0.008274 -0.001644 -0.000376)
 50:   3222.25   0.000024    0.12  0.000002  (-0.000488 -0.001432 -0.000033)

* The epsilon (eps) is given for a Dirac delta lineshape.
** The dipole moment derivative (T) already includes vibrational overlap.

The first frequency considered to be a vibration is 6
The total number of vibrations considered is 45


--------------------------
THERMOCHEMISTRY AT 298.15K
--------------------------

Temperature         ...   298.15 K
Pressure            ...     1.00 atm
Total Mass          ...   146.15 AMU
Quasi RRHO          ...     True
Cut-Off Frequency   ...     1.00 cm^-1

Throughout the following assumptions are being made:
  (1) The electronic state is orbitally nondegenerate
  (2) There are no thermally accessible electronically excited states
  (3) Hindered rotations indicated by low frequency modes are not
      treated as such but are treated as vibrations and this may
      cause some error
  (4) All equations used are the standard statistical mechanics
      equations for an ideal gas
  (5) All vibrations are strictly harmonic

freq.     105.14  E(vib)   ...       0.45 
freq.     161.94  E(vib)   ...       0.39 
freq.     270.15  E(vib)   ...       0.29 
freq.     309.99  E(vib)   ...       0.26 
freq.     384.03  E(vib)   ...       0.20 
freq.     455.90  E(vib)   ...       0.16 
freq.     472.09  E(vib)   ...       0.15 
freq.     500.67  E(vib)   ...       0.14 
freq.     538.37  E(vib)   ...       0.12 
freq.     561.24  E(vib)   ...       0.11 
freq.     626.29  E(vib)   ...       0.09 
freq.     703.83  E(vib)   ...       0.07 
freq.     745.38  E(vib)   ...       0.06 
freq.     776.73  E(vib)   ...       0.05 
freq.     779.09  E(vib)   ...       0.05 
freq.     788.57  E(vib)   ...       0.05 
freq.     849.52  E(vib)   ...       0.04 
freq.     899.70  E(vib)   ...       0.03 
freq.     900.23  E(vib)   ...       0.03 
freq.     946.22  E(vib)   ...       0.03 
freq.     987.05  E(vib)   ...       0.02 
freq.    1025.45  E(vib)   ...       0.02 
freq.    1030.58  E(vib)   ...       0.02 
freq.    1047.30  E(vib)   ...       0.02 
freq.    1110.83  E(vib)   ...       0.01 
freq.    1130.32  E(vib)   ...       0.01 
freq.    1156.21  E(vib)   ...       0.01 
freq.    1189.53  E(vib)   ...       0.01 
freq.    1248.64  E(vib)   ...       0.01 
freq.    1275.09  E(vib)   ...       0.01 
freq.    1297.24  E(vib)   ...       0.01 
freq.    1388.09  E(vib)   ...       0.00 
freq.    1419.46  E(vib)   ...       0.00 
freq.    1481.45  E(vib)   ...       0.00 
freq.    1521.76  E(vib)   ...       0.00 
freq.    1609.22  E(vib)   ...       0.00 
freq.    1660.11  E(vib)   ...       0.00 
freq.    1673.87  E(vib)   ...       0.00 
freq.    1801.37  E(vib)   ...       0.00 
freq.    3185.37  E(vib)   ...       0.00 
freq.    3188.99  E(vib)   ...       0.00 
freq.    3192.53  E(vib)   ...       0.00 
freq.    3203.40  E(vib)   ...       0.00 
freq.    3210.20  E(vib)   ...       0.00 
freq.    3222.25  E(vib)   ...       0.00 

------------
INNER ENERGY
------------

The inner energy is: U= E(el) + E(ZPE) + E(vib) + E(rot) + E(trans)
    E(el)   - is the total energy from the electronic structure calculation
              = E(kin-el) + E(nuc-el) + E(el-el) + E(nuc-nuc)
    E(ZPE)  - the the zero temperature vibrational energy from the frequency calculation
    E(vib)  - the the finite temperature correction to E(ZPE) due to population
              of excited vibrational states
    E(rot)  - is the rotational thermal energy
    E(trans)- is the translational thermal energy

Summary of contributions to the inner energy U:
Electronic energy                ...   -496.42948779 Eh
Zero point energy                ...      0.12764889 Eh      80.10 kcal/mol
Thermal vibrational correction   ...      0.00476120 Eh       2.99 kcal/mol
Thermal rotational correction    ...      0.00141627 Eh       0.89 kcal/mol
Thermal translational correction ...      0.00141627 Eh       0.89 kcal/mol
-----------------------------------------------------------------------
Total thermal energy                   -496.29424515 Eh


Summary of corrections to the electronic energy:
(perhaps to be used in another calculation)
Total thermal correction                  0.00759374 Eh       4.77 kcal/mol
Non-thermal (ZPE) correction              0.12764889 Eh      80.10 kcal/mol
-----------------------------------------------------------------------
Total correction                          0.13524263 Eh      84.87 kcal/mol


--------
ENTHALPY
--------

The enthalpy is H = U + kB*T
                kB is Boltzmann's constant
Total thermal energy              ...   -496.29424515 Eh 
Thermal Enthalpy correction       ...      0.00094421 Eh       0.59 kcal/mol
-----------------------------------------------------------------------
Total Enthalpy                    ...   -496.29330095 Eh


Note: Only C1 symmetry has been detected, increase convergence thresholds 
      if your molecule has a higher symmetry. Symmetry factor of 1.0 is   
      used for the rotational entropy correction. 
 

Note: Rotational entropy computed according to Herzberg 
Infrared and Raman Spectra, Chapter V,1, Van Nostrand Reinhold, 1945 
Point Group:  C1, Symmetry Number:   1  
Rotational constants in cm-1:     0.094117     0.029361     0.022379 

Vibrational entropy computed according to the QRRHO of S. Grimme
Chem.Eur.J. 2012 18 9955 using a reference frequency of 100.0 cm-1


-------
ENTROPY
-------

The entropy contributions are T*S = T*(S(el)+S(vib)+S(rot)+S(trans))
     S(el)   - electronic entropy
     S(vib)  - vibrational entropy
     S(rot)  - rotational entropy
     S(trans)- translational entropy
The entropies will be listed as multiplied by the temperature to get
units of energy

Electronic entropy                ...      0.00000000 Eh      0.00 kcal/mol
Vibrational entropy               ...      0.00750473 Eh      4.71 kcal/mol
Rotational entropy                ...      0.01408580 Eh      8.84 kcal/mol
Translational entropy             ...      0.01940862 Eh     12.18 kcal/mol
-----------------------------------------------------------------------
Final entropy term                ...      0.04099915 Eh     25.73 kcal/mol

In case the symmetry of your molecule has not been determined correctly
or in case you have a reason to use a different symmetry number we print 
out the resulting rotational entropy values for sn=1,12:

 non-linear molecules -----------------------------------
|  sn= 1 | S(rot)=       0.01408580 Eh      8.84 kcal/mol|
|  sn= 2 | S(rot)=       0.01343134 Eh      8.43 kcal/mol|
|  sn= 3 | S(rot)=       0.01304851 Eh      8.19 kcal/mol|
|  sn= 4 | S(rot)=       0.01277689 Eh      8.02 kcal/mol|
|  sn= 5 | S(rot)=       0.01256620 Eh      7.89 kcal/mol|
|  sn= 6 | S(rot)=       0.01239406 Eh      7.78 kcal/mol|
|  sn= 7 | S(rot)=       0.01224851 Eh      7.69 kcal/mol|
|  sn= 8 | S(rot)=       0.01212243 Eh      7.61 kcal/mol|
|  sn= 9 | S(rot)=       0.01201122 Eh      7.54 kcal/mol|
|  sn=10 | S(rot)=       0.01191174 Eh      7.47 kcal/mol|
|  sn=11 | S(rot)=       0.01182175 Eh      7.42 kcal/mol|
|  sn=12 | S(rot)=       0.01173960 Eh      7.37 kcal/mol|
 linear molecules ---------------------------------------
|  Dinfh | S(rot)=       0.00891333 Eh      5.59 kcal/mol|
|  Cinfv | S(rot)=       0.00956778 Eh      6.00 kcal/mol|
 --------------------------------------------------------


-------------------
GIBBS FREE ENERGY
-------------------

The Gibbs free energy is G = H - T*S

Total enthalpy                    ...   -496.29330095 Eh 
Total entropy correction          ...     -0.04099915 Eh    -25.73 kcal/mol
-----------------------------------------------------------------------
Final Gibbs free energy         ...   -496.33430010 Eh

For completeness - the Gibbs free energy minus the electronic energy
G-E(el)                           ...      0.09518769 Eh     59.73 kcal/mol


Maximum memory used throughout the entire PROP-calculation: 54.6 MB

--------------------------------
SUGGESTED CITATIONS FOR THIS RUN
--------------------------------

Below you find a list of papers that are relevant to this ORCA run
We neither can nor want to force you to cite these papers, but we appreciate if you do
You receive ORCA, which is the product of decades of hard work by many enthusiastic individuals, for free
The only thing we kindly ask in return is that you cite our papers,
We deeply appreciate it, if you show your appreciation for ORCA by not just citing the generic ORCA reference.

Please note that relegating all ORCA citations to the supporting information does *not* help us.
SI sections are not indexed - citations you put there will not count into any citation statistics
But we need these citations in order to attract the funding resources that allow us to do what we are doing

Therefore, if you are a happy ORCA user, please consider citing a few of the papers listed below in the main body of your paper

In addition to the list printed below, the program has created the file CMR_GOLD_055_correct_opt_pal8_clean.bibtex that contains the list in bibtex format
You can import this file easily into all common literature databanks and citation aid programs

It goes without saying that in many instances, there are alternative algorithms to achieve similar
results as the ones you have gotten from ORCA. It is, of course, also the case that in some instances
ORCA just re-implements algorithms worked out by others. We are fully aware of that and we are also
fully appreciative of our colleagues work. Hence this citation list should not be read as indicating
that the listed papers, which are focused on our own work, are the only ones worth citing. It simply
meant to make it easier for users to cite ORCA specific papers. It is not a substitute for doing your
own literature research and citing the relevant literature in a scientifically appropriate manner.

List of essential papers. We consider these as the minimum necessary citations

  1. Neese, F.
     Software update: the ORCA program system, version 6.0
     WIRES Comput. Molec. Sci. 2025 15(1), e70019
     doi.org/10.1002/wcms.70019

List of papers to cite with high priority. The work reported in these papers was absolutely
necessary for this run to complete.
Our perspective: the developers of density functionals and basis sets usually get cited in chemistry papers
Good! But without the algorithms to do something with them, the functionals or basis sets would not do anything.
Hence, in our opinion, the algorithm design and method developments papers are equally worthy of getting cited

  1. Neese, F.
     An improvement of the resolution of the identity approximation for the formation of the Coulomb matrix
     J. Comp. Chem. 2003 24(14), 1740-1747
     doi.org/10.1002/jcc.10318
  2. Neese, F.; Wennmohs, F.; Hansen, A.; Becker, U.
     Efficient, approximate and parallel Hartree-Fock and hybrid DFT calculations. A 'chain-of-spheres' algorithm for the Hartree-Fock exchange
     Chem. Phys. 2009 356(1-3), 98-109
     doi.org/10.1016/j.chemphys.2008.10.036
  3. Grimme, S.; Antony, J.; Ehrlich, S.; Krieg, H.
     A consistent and accurate ab initio parametrization of density functional dispersion correction (DFT-D) for the 94 elements H-Pu
     J. Chem. Phys. 2010 132 , 154104
     doi.org/10.1063/1.3382344
  4. Grimme, S.; Ehrlich, S.; Goerigk, L.
     Effect of the damping function in dispersion corrected density functional theory
     J. Comput. Chem. 2011 32(7), 1456-1465
     doi.org/10.1002/jcc.21759
  5. Bykov, D.; Petrenko, T.; Izsak, R.; Kossmann, S.; Becker, U.; Valeev, E.; Neese, F.
     Efficient implementation of the analytic second derivatives of Hartree-Fock and hybrid DFT energies: a detailed analysis of different approximations
     Molec. Phys. 2015 113 , 1961-1977
     doi.org/10.1080/00268976.2015.1025114
  6. Garcia-Rates, M.; Neese, F.
     Efficient implementation of the analytical second derivatives of hartree-fock and hybrid DFT energies within the framework of the conductor-like polarizable continuum model
     J. Comput. Chem. 2019 40 , 1816-1828
     doi.org/10.1002/jcc.25833
  7. Garcia-Rates, M.; Neese, F.
     Effect of the Solute Cavity on the Solvation Energy and its Derivatives within the Framework of the Gaussian Charge Scheme
     J. Comput. Chem. 2020 41 , 922-939
     doi.org/10.1002/jcc.26139
  8. Helmich-Paris, B.; de Souza, B.; Neese, F.; Izsák, R.
     An improved chain of spheres for exchange algorithm
     J. Chem. Phys. 2021 155(10), 104109
     doi.org/10.1063/5.0058766
  9. Neese, F.
     The SHARK Integral Generation and Digestion System
     J. Comp. Chem. 2022 44(3), 381
     doi.org/10.1002/jcc.26942

List of suggested additional citations. These are papers that are important in the 'surrounding' of 
of this run, or papers that preceded the highly important papers. If you like your results we are grateful for a citation.

  1. Izsak, R.; Neese, F.
     An overlap fitted chain of spheres exchange method
     J. Chem. Phys. 2011 135 , 144105
     doi.org/10.1063/1.3646921
  2. Izsak, R.; Hansen, A.; Neese, F.
     The resolution of identity and chain of spheres approximations for the LPNO-CCSD singles Fock term
     Molec. Phys. 2012 110 , 2413-2417
     doi.org/10.1080/00268976.2012.687466
  3. Neese, F.
     The ORCA program system
     WIRES Comput. Molec. Sci. 2012 2(1), 73-78
     doi.org/10.1002/wcms.81
  4. Izsak, R.; Neese, F.; Klopper, W.
     Robust fitting techniques in the chain of spheres approximation to the Fock exchange: The role of the complementary space
     J. Chem. Phys. 2013 139 , 
     doi.org/10.1063/1.4819264
  5. Neese, F.
     Software update: the ORCA program system, version 4.0
     WIRES Comput. Molec. Sci. 2018 8(1), 1-6
     doi.org/10.1002/wcms.1327
  6. Neese, F.; Wennmohs, F.; Becker, U.; Riplinger, C.
     The ORCA quantum chemistry program package
     J. Chem. Phys. 2020 152(22), 224108
     doi.org/10.1063/5.0004608
  7. Neese, F.
     Software update: The ORCA program system—Version 5.0
     WIRES Comput. Molec. Sci. 2022 12(1), e1606
     doi.org/10.1002/wcms.1606

List of optional additional citations

  1. Neese, F.
     Approximate second-order SCF convergence for spin unrestricted wavefunctions
     Chem. Phys. Lett. 2000 325(1-3), 93-98
     doi.org/10.1016/s0009-2614(00)00662-x

Timings for individual modules:

Sum of individual times          ...      161.622 sec (=   2.694 min)
Startup calculation              ...        5.866 sec (=   0.098 min)   3.6 %
SCF iterations                   ...       40.915 sec (=   0.682 min)  25.3 %
Property integrals               ...       20.117 sec (=   0.335 min)  12.4 %
SCF Response                     ...       37.417 sec (=   0.624 min)  23.2 %
Property calculations            ...       36.327 sec (=   0.605 min)  22.5 %
SCF Gradient evaluation          ...       20.881 sec (=   0.348 min)  12.9 %
Geometry relaxation              ...        0.099 sec (=   0.002 min)   0.1 %
                             ****ORCA TERMINATED NORMALLY****
TOTAL RUN TIME: 0 days 0 hours 2 minutes 44 seconds 145 msec
