
                                 *****************
                                 * O   R   C   A *
                                 *****************

                                            #,                                       
                                            ###                                      
                                            ####                                     
                                            #####                                    
                                            ######                                   
                                           ########,                                 
                                     ,,################,,,,,                         
                               ,,#################################,,                 
                          ,,##########################################,,             
                       ,#########################################, ''#####,          
                    ,#############################################,,   '####,        
                  ,##################################################,,,,####,       
                ,###########''''           ''''###############################       
              ,#####''   ,,,,##########,,,,          '''####'''          '####       
            ,##' ,,,,###########################,,,                        '##       
           ' ,,###''''                  '''############,,,                           
         ,,##''                                '''############,,,,        ,,,,,,###''
      ,#''                                            '''#######################'''  
     '                                                          ''''####''''         
             ,#######,   #######,   ,#######,      ##                                
            ,#'     '#,  ##    ##  ,#'     '#,    #''#        ,####,    ,#,          
            ##       ##  ##   ,#'  ##            #'  '#       #'       ,# #          
            ##       ##  #######   ##           ,######,      #####,      #          
            '#,     ,#'  ##    ##  '#,     ,#' ,#      #,     #,   #      #          
             '#######'   ##     ##  '#######'  #'      '#     '####' #    #          



                #########################################################
                #                        -***-                          #
                #          Department of theory and spectroscopy        #
                #                                                       #
                #                      Frank Neese                      #
                #                                                       #
                #     Directorship, Architecture, Infrastructure        #
                #                    SHARK, DRIVERS                     #
                #        Core code/Algorithms in most modules           #
                #                                                       #
                #        Max Planck Institute fuer Kohlenforschung      #
                #                Kaiser Wilhelm Platz 1                 #
                #                 D-45470 Muelheim/Ruhr                 #
                #                      Germany                          #
                #                                                       #
                #                  All rights reserved                  #
                #                        -***-                          #
                #########################################################


                         Program Version 6.1.1  -  RELEASE   -


 With contributions from (in alphabetic order):
[Max-Planck-Institut fuer Kohlenforschung]                               
  Daniel Aravena         : Magnetic Suceptibility                        
  Michael Atanasov       : Ab Initio Ligand Field Theory (pilot matlab implementation)
  Alexander A. Auer      : GIAO ZORA, VPT2 properties, NMR spectrum      
  Ute Becker             : All parallelization in ORCA, NUMFREQ, NUMCALC 
  Giovanni Bistoni       : ED, misc. LED, open-shell LED, HFLD           
  Dmytro Bykov           : pre 5.0 version of the SCF Hessian            
  Marcos Casanova-Páez   : Triplet and SCS-CIS(D). UHF-(DLPNO)-IP/EA/STEOM-CCSD. UHF-CVS-IP/STEOM-CCSD   
  Vijay G. Chilkuri      : MRCI spin determinant printing, contributions to CSF-ICE 
  Pauline Colinet        : FMM embedding                                 
  Dipayan Datta          : RHF DLPNO-CCSD density                        
  Achintya Kumar Dutta   : EOM-CC, STEOM-CC                              
  Nicolas Foglia         : Exact transition moments, OPA infrastructure, MCD improvements    
  Dmitry Ganyushin       : Spin-Orbit,Spin-Spin,Magnetic field MRCI      
  Miquel Garcia-Rates    : C-PCM and meta-GGA Hessian, CCSD/C-PCM, Gaussian charge scheme 
  Tiago L. C. Gouveia    : GS-ROHF, GS-ROCIS                             
  Yang Guo               : DLPNO-NEVPT2, F12-NEVPT2, CIM, IAO-localization        
  Andreas Hansen         : Spin unrestricted coupled pair/coupled cluster methods 
  Ingolf Harden          : AUTO-CI MPn and infrastructure                
  Benjamin Helmich-Paris : MC-RPA, TRAH-(SCF,CASSCF), AVAS, COSX integrals, SCF dyn. polar., MC-PDFT, srDFT 
  Lee Huntington         : MR-EOM, pCC                                   
  Robert Izsak           : Overlap fitted RIJCOSX, COSX-SCS-MP3, EOM     
  Riya Kayal             : Wick's Theorem for AUTO-CI, AUTO-CI UHF-CCSDT 
  Emily Kempfer          : AUTO-CI RHF CISDT and CCSDT, approximate NEVPT4
  Christian Kollmar      : KDIIS, OOCD, Brueckner-CCSD(T), CCSD density, CASPT2, CASPT2-K, improved NEVPT2 
  Axel Koslowski         : Symmetry handling                             
  Simone Kossmann        : meta-GGA functionals, TD-DFT gradient, OOMP2, (MP2 Hessian; deprecated post 5.0) 
  Lucas Lang             : DCDCAS, Hyperfine gauge corrections, ICE-SOC+SSC
  Marvin Lechner         : AUTO-CI (C++ implementation), FIC-MRCC        
  Spencer Leger          : CASSCF response                               
  Dagmar Lenk            : GEPOL surface, SMD, ORCA-2-JSON               
  Dimitrios Liakos       : Extrapolation schemes; Compound Job, Property file
  Dimitrios Manganas     : Further ROCIS development; embedding schemes. LFT, Crystal Embedding 
  Dimitrios Pantazis     : SARC Basis sets                               
  Anastasios Papadopoulos: AUTO-CI, single reference methods and gradients 
  Taras Petrenko         : pre 6.0 DFT Hessian and TD-DFT gradient,  ECA, NRVS 
  Petra Pikulova         : Analytic Raman intensities                    
  Peter Pinski           : DLPNO-MP2, DLPNO-MP2 Gradient                 
  Shashank Vittal Rao    : ES-AILFT, MagRelax                            
  Christoph Reimann      : Effective Core Potentials                     
  Marius Retegan         : Local ZFS, SOC                                
  Christoph Riplinger    : Optimizer, TS searches, QM/MM, DLPNO-CCSD(T), (RO)-DLPNO pert. Triples 
  Michael Roemelt        : Original ROCIS implementation, recursive CI coupling coefficients
  Masaaki Saitow         : Open-shell DLPNO-CCSD energy and density      
  Barbara Sandhoefer     : DKH picture change effects                    
  Yorick L. A. Schmerwitz: GMF and freeze-and-release deltaSCF, NEB S-IDPP initial path                    
  Kantharuban Sivalingam : CASSCF convergence/infrastructure, NEVPT2, NEVPT3, NEVPT4(SD), FIC-MRCI and CEPA variants
  Bernardo de Souza      : ESD, SOC TD-DFT                               
  Georgi L. Stoychev     : AutoAux, RI-MP2 NMR, DLPNO-MP2 response, X2C  
  Van Anh Tran           : RI-MP2 g-tensors                              
  Willem Van den Heuvel  : Paramagnetic NMR                              
  Zikuan Wang            : NOTCH, Electric field optimization            
  Frank Wennmohs         : Technical directorship and infrastructure     
  Hang Xu                : AUTO-CI-Response properties                   
                                                                         
[FACCTs GmbH]                                                            
  Markus Bursch, Nicolas Foglia, Miquel Garcia-Rates, Ingolf Harden, Hagen Neugebauer, Anastasios Papadopoulos, 
  Christoph Riplinger, Bernardo de Souza, Georgi L. Stoychev                                                    
                                                                 
  APM, various basis sets, CI-OPT, improved COSX, DLPNO-Multilevel,           
  DOCKER, DRACO, updates on ESD, Fragmentator, GOAT, IRC, LR-CPCM, L-BFGS, MBIS, meta-GGA TD-DFT gradient, ML-optimized integration grids, 
  MM, NACMEs, nearIR, NEB, NEB-TS, NL-DFT gradient (VV10), 2- and 3-layer-ONIOM, interface openCOSMO-RS, QMMM,   
  Crystal-QMMM, RESP, rigid body optimization, SF, symmetry and pop. for TD-DFT, various functionals, SOLVATOR                                   
                                                                         
[Other institutions]                                                     
  V. Asgeirsson          : NEB                                           
  Christoph Bannwarth    : sTDA-DFT, sTD-DFT, PBEh-3c, B97-3c, D3        
  Giovanni Bistoni       : ETS/NOCV, ADLD/ADEX, COVALED                  
  Martin Brehm           : Molecular dynamics                            
  Ronald Cardenas        : ETS/NOCV                                      
  Martina Colucci        : COVALED                                       
  Sebastian Ehlert       : rSCAN, r2SCAN, r2SCAN-3c, D4, dhf basis sets  
  Marvin Friede          : D4 for Fr, Ra, Ac-Lr                          
  Lars Goerigk           : TD-DFT with DH, B97 family of functionals     
  Stefan Grimme          : VdW corrections, initial TS optimization, DFT functionals, gCP, sTDA/sTD-DF 
  Waldemar Hujo          : DFT-NL                                        
  H. Jonsson             : NEB                                           
  Holger Kruse           : gCP                                           
  Marcel Mueller         : wB97X-3c, vDZP basis set                      
  Hagen Neugebauer       : wr2SCAN, Native XTB                           
  Gianluca Regni         : ADLD/ADEX                                     
  Tobias Risthaus        : pre 6.0 range-separated hybrid DFT and stability analysis
  Lukas Wittmann         : regularized MP2, r2SCAN double-hybrids, wr2SCAN        
                                                                         
We gratefully acknowledge several colleagues who have allowed us to      
interface, adapt or use parts of their codes:                            
  Ed Valeev, F. Pavosevic, A. Kumar             : LibInt (2-el integral package), F12 methods 
  Garnet Chan, S. Sharma, J. Yang, R. Olivares  : DMRG                   
  Ulf Ekstrom                                   : XCFun DFT Library      
  Mihaly Kallay                                 : mrcc  (arbitrary order and MRCC methods)
  Frank Weinhold                                : gennbo (NPA and NBO analysis)           
  Simon Mueller                                 : openCOSMO-RS                            
  Christopher J. Cramer and Donald G. Truhlar   : smd solvation model                     
  S Lehtola, MJT Oliveira, MAL Marques          : LibXC Library                           
  Liviu Ungur et al                             : ANISO software                          


 Your calculation uses the libint2 library for the computation of 2-el integrals
 For citations please refer to: http://libint.valeyev.net

 Your ORCA version has been built with support for libXC version: 7.0.0
 For citations please refer to: https://libxc.gitlab.io

 This ORCA versions uses:
   CBLAS   interface :  Fast vector & matrix operations
   LAPACKE interface :  Fast linear algebra routines
   Shared memory     :  Shared parallel matrices


  ***********************************
  * Starting time: Thu Apr 30 23:24:21 2026
  * Host name:     AHMET
  * Process ID:    16952
  * Working dir.:  C:\orca_tests\DFT_FINAL_PROPERTIES\043\01_opt_freq_correct
  ***********************************

NOTE: MaxCore=3000 MB was set to SCF,MP2,MDCI,CIPSI,MRCI,RASCI and CIS
      => If you want to overwrite this, your respective input block should be placed after the MaxCore statement


***************************************
The coordinates will be read from file: geom.xyz
***************************************


Your calculation utilizes the atom-pairwise dispersion correction
with the Becke-Johnson damping scheme (D3BJ)


================================================================================

----- Orbital basis set information -----
Your calculation utilizes the basis: def2-SVP
   F. Weigend and R. Ahlrichs, Phys. Chem. Chem. Phys. 7, 3297 (2005).

----- AuxJ basis set information -----
Your calculation utilizes the auxiliary basis: def2/J
   H-Rn: F. Weigend, Phys. Chem. Chem. Phys. 8, 1057 (2006).
   Fr-Lr: K. Eichkorn, F. Weigend, O. Treutler, R. Ahlrichs; Theor. Chem. Acc. 97, 119 (1997).

================================================================================
                                        WARNINGS
                       Please study these warnings very carefully!
================================================================================


WARNING: Geometry Optimization
  ===> : Switching off AutoStart
         For restart on a previous wavefunction, please use MOREAD

================================================================================
                                       INPUT FILE
================================================================================
NAME = CMR_GOLD_043_correct_opt_pal8.inp
|  1> ! B3LYP D3BJ def2-SVP CPCM(Water) TightSCF RIJCOSX def2/J Opt Freq
|  2> 
|  3> %maxcore 3000
|  4> 
|  5> %pal
|  6>   nprocs 8
|  7> end
|  8> 
|  9> %geom
| 10>   MaxIter 300
| 11> end
| 12> 
| 13> * xyzfile 0 1 geom.xyz
| 14> 
| 15>                          ****END OF INPUT****
================================================================================

                       *****************************
                       * Geometry Optimization Run *
                       *****************************

Geometry optimization settings:
Update method            Update   .... BFGS
Choice of coordinates    CoordSys .... (2022) Redundant Internals
Initial Hessian          InHess   .... Almloef's Model
Max. no of cycles        MaxIter  .... 300

Convergence Tolerances:
Energy Change            TolE     ....  5.0000e-06 Eh
Max. Gradient            TolMAXG  ....  3.0000e-04 Eh/bohr
RMS Gradient             TolRMSG  ....  1.0000e-04 Eh/bohr
Max. Displacement        TolMAXD  ....  4.0000e-03 bohr
RMS Displacement         TolRMSD  ....  2.0000e-03 bohr
Strict Convergence                .... False

------------------------------------------------------------------------------
                        ORCA OPTIMIZATION COORDINATE SETUP
------------------------------------------------------------------------------

The optimization will be done in redundant internal coordinates (2022)
Making redundant internal coordinates   ...  (2022 redundants) done
Evaluating the initial hessian          ...  (Almloef) done
Evaluating the coordinates              ...  done
Calculating the B-matrix                .... done
Calculating the G-matrix                .... done
The number of degrees of freedom        ....  114

    -----------------------------------------------------------------
                    Redundant Internal Coordinates


    -----------------------------------------------------------------
         Definition                    Initial Value    Approx d2E/dq
    -----------------------------------------------------------------
      1. B(C   1,O   0)                  1.2255         1.024086   
      2. B(O   2,C   1)                  1.3757         0.589876   
      3. B(C   3,O   2)                  1.4041         0.531252   
      4. B(C   4,C   3)                  1.3987         0.605091   
      5. B(C   5,C   4)                  1.3884         0.628436   
      6. B(C   6,C   5)                  1.3905         0.623678   
      7. B(C   7,C   6)                  1.4027         0.596354   
      8. B(C   8,C   7)                  1.4040         0.593371   
      9. B(C   8,C   3)                  1.3991         0.604230   
     10. B(C   9,C   8)                  1.4911         0.430925   
     11. B(C  10,C   9)                  1.3488         0.726966   
     12. B(C  10,C   1)                  1.4636         0.476703   
     13. B(C  11,C   9)                  1.4526         0.496444   
     14. B(N  12,C  11)                  1.3427         0.665819   
     15. B(O  13,N  12)                  1.3914         0.498580   
     16. B(C  14,O  13)                  1.3534         0.640107   
     17. B(N  15,C  14)                  1.3080         0.756326   
     18. B(N  15,C  11)                  1.3836         0.572874   
     19. B(H  16,C   4)                  1.0867         0.364446   
     20. B(H  17,C   5)                  1.0867         0.364445   
     21. B(H  18,C   6)                  1.0880         0.362783   
     22. B(H  19,C   7)                  1.0855         0.366045   
     23. B(H  20,C  10)                  1.0865         0.364772   
     24. B(H  21,C  14)                  1.0794         0.374381   
     25. A(O   0,C   1,O   2)          122.3045         0.464975   
     26. A(O   0,C   1,C  10)          120.6875         0.450250   
     27. A(O   2,C   1,C  10)          117.0079         0.407847   
     28. A(C   1,O   2,C   3)          120.4479         0.413074   
     29. A(C   4,C   3,C   8)          122.8596         0.430175   
     30. A(O   2,C   3,C   8)          122.0654         0.417546   
     31. A(O   2,C   3,C   4)          115.0750         0.417652   
     32. A(C   5,C   4,H  16)          120.2426         0.354437   
     33. A(C   3,C   4,C   5)          119.5266         0.433222   
     34. A(C   3,C   4,H  16)          120.2307         0.352173   
     35. A(C   4,C   5,H  17)          120.3371         0.354437   
     36. A(C   4,C   5,C   6)          119.3242         0.435587   
     37. A(C   6,C   5,H  17)          120.3388         0.353981   
     38. A(C   5,C   6,H  18)          119.9223         0.353707   
     39. A(C   5,C   6,C   7)          120.4286         0.431501   
     40. A(C   7,C   6,H  18)          119.6490         0.351036   
     41. A(C   6,C   7,C   8)          121.5847         0.427661   
     42. A(C   8,C   7,H  19)          121.9327         0.351270   
     43. A(C   6,C   7,H  19)          116.4826         0.351568   
     44. A(C   7,C   8,C   9)          124.2280         0.403650   
     45. A(C   3,C   8,C   9)          119.4957         0.404944   
     46. A(C   3,C   8,C   7)          116.2763         0.428668   
     47. A(C   8,C   9,C  10)          115.1621         0.418449   
     48. A(C   8,C   9,C  11)          126.4391         0.391202   
     49. A(C  10,C   9,C  11)          118.3988         0.429174   
     50. A(C   9,C  10,H  20)          121.6218         0.363389   
     51. A(C   1,C  10,H  20)          112.5572         0.338394   
     52. A(C   1,C  10,C   9)          125.8210         0.426064   
     53. A(N  12,C  11,N  15)          113.0650         0.427815   
     54. A(C   9,C  11,N  15)          119.0402         0.408666   
     55. A(C   9,C  11,N  12)          127.8949         0.419732   
     56. A(C  11,N  12,O  13)          104.2500         0.414574   
     57. A(N  12,O  13,C  14)          106.3110         0.411684   
     58. A(O  13,C  14,N  15)          113.7130         0.446602   
     59. A(N  15,C  14,H  21)          129.2004         0.365201   
     60. A(O  13,C  14,H  21)          117.0866         0.354966   
     61. A(C  11,N  15,C  14)          102.6610         0.437732   
     62. D(C   3,O   2,C   1,O   0)    179.9982         0.025358   
     63. D(C   3,O   2,C   1,C  10)     -0.0020         0.025358   
     64. D(C   8,C   3,O   2,C   1)      0.0018         0.020353   
     65. D(C   4,C   3,O   2,C   1)   -179.9986         0.020353   
     66. D(C   5,C   4,C   3,C   8)     -0.0002         0.025264   
     67. D(H  16,C   4,C   3,O   2)     -0.0002         0.025264   
     68. D(H  16,C   4,C   3,C   8)    179.9994         0.025264   
     69. D(C   5,C   4,C   3,O   2)   -179.9998         0.025264   
     70. D(H  17,C   5,C   4,H  16)      0.0001         0.027374   
     71. D(H  17,C   5,C   4,C   3)    179.9996         0.027374   
     72. D(C   6,C   5,C   4,C   3)     -0.0004         0.027374   
     73. D(C   6,C   5,C   4,H  16)   -179.9999         0.027374   
     74. D(H  18,C   6,C   5,C   4)   -179.9989         0.026935   
     75. D(C   7,C   6,C   5,H  17)   -179.9995         0.026935   
     76. D(C   7,C   6,C   5,C   4)      0.0005         0.026935   
     77. D(H  18,C   6,C   5,H  17)      0.0011         0.026935   
     78. D(H  19,C   7,C   6,H  18)      0.0004         0.024501   
     79. D(H  19,C   7,C   6,C   5)   -179.9989         0.024501   
     80. D(C   8,C   7,C   6,H  18)    179.9994         0.024501   
     81. D(C   8,C   7,C   6,C   5)      0.0000         0.024501   
     82. D(C   9,C   8,C   7,H  19)     -0.0012         0.024244   
     83. D(C   3,C   8,C   7,H  19)    179.9984         0.024244   
     84. D(C   3,C   8,C   7,C   6)     -0.0005         0.024244   
     85. D(C   9,C   8,C   3,C   4)   -179.9998         0.025188   
     86. D(C   9,C   8,C   3,O   2)     -0.0002         0.025188   
     87. D(C   9,C   8,C   7,C   6)    179.9999         0.024244   
     88. D(C   7,C   8,C   3,C   4)      0.0006         0.025188   
     89. D(C   7,C   8,C   3,O   2)   -179.9998         0.025188   
     90. D(C  11,C   9,C   8,C   3)    179.9983         0.012686   
     91. D(C  10,C   9,C   8,C   7)    179.9986         0.012686   
     92. D(C  10,C   9,C   8,C   3)     -0.0010         0.012686   
     93. D(C  11,C   9,C   8,C   7)     -0.0021         0.012686   
     94. D(H  20,C  10,C   9,C  11)      0.0005         0.037469   
     95. D(C   1,C  10,C   9,C  11)   -179.9986         0.037469   
     96. D(C   1,C  10,C   9,C   8)      0.0008         0.037469   
     97. D(H  20,C  10,C   1,O   2)   -179.9984         0.015472   
     98. D(H  20,C  10,C   1,O   0)      0.0014         0.015472   
     99. D(H  20,C  10,C   9,C   8)    179.9998         0.037469   
    100. D(C   9,C  10,C   1,O   2)      0.0007         0.015472   
    101. D(C   9,C  10,C   1,O   0)   -179.9994         0.015472   
    102. D(N  15,C  11,C   9,C  10)     -0.0111         0.016785   
    103. D(N  15,C  11,C   9,C   8)    179.9896         0.016785   
    104. D(N  12,C  11,C   9,C  10)    179.9883         0.016785   
    105. D(N  12,C  11,C   9,C   8)     -0.0109         0.016785   
    106. D(O  13,N  12,C  11,N  15)     -0.0003         0.032896   
    107. D(O  13,N  12,C  11,C   9)   -179.9998         0.032896   
    108. D(C  14,O  13,N  12,C  11)      0.0008         0.018498   
    109. D(H  21,C  14,O  13,N  12)   -180.0000         0.030207   
    110. D(N  15,C  14,O  13,N  12)     -0.0011         0.030207   
    111. D(C  11,N  15,C  14,H  21)    179.9996         0.043525   
    112. D(C  11,N  15,C  14,O  13)      0.0009         0.043525   
    113. D(C  14,N  15,C  11,N  12)     -0.0003         0.023835   
    114. D(C  14,N  15,C  11,C   9)    179.9992         0.023835   
    -----------------------------------------------------------------

Number of atoms                         .... 22
Number of degrees of freedom            .... 114


         *************************************************************
         *                GEOMETRY OPTIMIZATION CYCLE   1            *
         *************************************************************
---------------------------------
CARTESIAN COORDINATES (ANGSTROEM)
---------------------------------
  O     -1.055563    3.746362   -0.652381
  C     -0.924616    2.547913   -0.432370
  O     -2.000450    1.718268   -0.216272
  C     -1.805326    0.350149    0.032352
  C     -2.975717   -0.388113    0.236273
  C     -2.889924   -1.750491    0.489792
  C     -1.639597   -2.357094    0.536383
  C     -0.475599   -1.602181    0.329658
  C     -0.529671   -0.223175    0.071263
  C      0.668207    0.635014   -0.156886
  C      0.404849    1.937245   -0.389317
  C      2.054422    0.200963   -0.150381
  N      2.529940   -1.037203    0.058532
  O      3.910367   -0.895741   -0.043840
  C      4.140123    0.412290   -0.304580
  N      3.050991    1.132500   -0.381652
  H     -3.945219    0.101252    0.196545
  H     -3.790789   -2.336762    0.650174
  H     -1.561054   -3.424035    0.734286
  H      0.465768   -2.140401    0.380166
  H      1.199631    2.655927   -0.568984
  H      5.169228    0.717314   -0.418762

----------------------------
CARTESIAN COORDINATES (A.U.)
----------------------------
  NO LB      ZA    FRAG     MASS         X           Y           Z
   0 O     8.0000    0    15.999   -1.994726    7.079599   -1.232822
   1 C     6.0000    0    12.011   -1.747271    4.814858   -0.817061
   2 O     8.0000    0    15.999   -3.780303    3.247055   -0.408694
   3 C     6.0000    0    12.011   -3.411572    0.661685    0.061137
   4 C     6.0000    0    12.011   -5.623290   -0.733427    0.446491
   5 C     6.0000    0    12.011   -5.461166   -3.307949    0.925573
   6 C     6.0000    0    12.011   -3.098389   -4.454262    1.013618
   7 C     6.0000    0    12.011   -0.898752   -3.027684    0.622964
   8 C     6.0000    0    12.011   -1.000933   -0.421740    0.134667
   9 C     6.0000    0    12.011    1.262728    1.200002   -0.296471
  10 C     6.0000    0    12.011    0.765054    3.660863   -0.735703
  11 C     6.0000    0    12.011    3.882296    0.379765   -0.284178
  12 N     7.0000    0    14.007    4.780894   -1.960029    0.110609
  13 O     8.0000    0    15.999    7.389523   -1.692705   -0.082846
  14 C     6.0000    0    12.011    7.823700    0.779116   -0.575573
  15 N     7.0000    0    14.007    5.765537    2.140114   -0.721218
  16 H     1.0000    0     1.008   -7.455384    0.191338    0.371416
  17 H     1.0000    0     1.008   -7.163553   -4.415841    1.228652
  18 H     1.0000    0     1.008   -2.949965   -6.470488    1.387600
  19 H     1.0000    0     1.008    0.880174   -4.044771    0.718410
  20 H     1.0000    0     1.008    2.266974    5.018975   -1.075224
  21 H     1.0000    0     1.008    9.768425    1.355528   -0.791345

--------------------------------
INTERNAL COORDINATES (ANGSTROEM)
--------------------------------
 O      0   0   0     0.000000000000     0.00000000     0.00000000
 C      1   0   0     1.225492689926     0.00000000     0.00000000
 O      2   1   0     1.375655770133   122.30454719     0.00000000
 C      3   2   1     1.404149739922   120.44786156   179.99818152
 C      4   3   2     1.398723630323   115.07498517   180.00138378
 C      5   4   3     1.388418837210   119.52663322   180.00022663
 C      6   5   4     1.390487583967   119.32418975     0.00000000
 C      7   6   5     1.402682710128   120.42862496     0.00000000
 C      4   3   2     1.399110956983   122.06541284     0.00000000
 C      9   4   3     1.491124061045   119.49571987     0.00000000
 C     10   9   4     1.348772869892   115.16212485     0.00000000
 C     10   9   4     1.452596081264   126.43908439   179.99827482
 N     12  10   9     1.342689417429   127.89489768     0.00000000
 O     13  12  10     1.391427379522   104.25002533   180.00021976
 C     14  13  12     1.353410112093   106.31099976     0.00000000
 N     15  14  13     1.307995083928   113.71298100     0.00000000
 H      5   4   3     1.086734066755   120.23073819     0.00000000
 H      6   5   4     1.086735359326   120.33705270   179.99960101
 H      7   6   5     1.087979032189   119.92232815   180.00111077
 H      8   7   6     1.085542722610   116.48260780   180.00108109
 H     11  10   9     1.086490789829   121.62179111   179.99982809
 H     15  14  13     1.079413040254   117.08658150   180.00004276

---------------------------
INTERNAL COORDINATES (A.U.)
---------------------------
 O      0   0   0     0.000000000000     0.00000000     0.00000000
 C      1   0   0     2.315845563082     0.00000000     0.00000000
 O      2   1   0     2.599612660099   122.30454719     0.00000000
 C      3   2   1     2.653458459469   120.44786156   179.99818152
 C      4   3   2     2.643204598355   115.07498517   180.00138378
 C      5   4   3     2.623731361505   119.52663322   180.00022663
 C      6   5   4     2.627640726315   119.32418975     0.00000000
 C      7   6   5     2.650686174928   120.42862496     0.00000000
 C      4   3   2     2.643936539667   122.06541284     0.00000000
 C      9   4   3     2.817816107075   119.49571987     0.00000000
 C     10   9   4     2.548811340959   115.16212485     0.00000000
 C     10   9   4     2.745008776796   126.43908439   179.99827482
 N     12  10   9     2.537315281856   127.89489768     0.00000000
 O     13  12  10     2.629416682537   104.25002533   180.00021976
 C     14  13  12     2.557574458735   106.31099976     0.00000000
 N     15  14  13     2.471752493138   113.71298100     0.00000000
 H      5   4   3     2.053629766570   120.23073819     0.00000000
 H      6   5   4     2.053632209174   120.33705270   179.99960101
 H      7   6   5     2.055982410286   119.92232815   180.00111077
 H      8   7   6     2.051378452404   116.48260780   180.00108109
 H     11  10   9     2.053170039804   121.62179111   179.99982809
 H     15  14  13     2.039795031464   117.08658150   180.00004276

---------------------
BASIS SET INFORMATION
---------------------
There are 4 groups of distinct atoms

 Group   1 Type O   : 7s4p1d contracted to 3s2p1d pattern {511/31/1}
 Group   2 Type C   : 7s4p1d contracted to 3s2p1d pattern {511/31/1}
 Group   3 Type N   : 7s4p1d contracted to 3s2p1d pattern {511/31/1}
 Group   4 Type H   : 4s1p contracted to 2s1p pattern {31/1}

Atom   0O    basis set group =>   1
Atom   1C    basis set group =>   2
Atom   2O    basis set group =>   1
Atom   3C    basis set group =>   2
Atom   4C    basis set group =>   2
Atom   5C    basis set group =>   2
Atom   6C    basis set group =>   2
Atom   7C    basis set group =>   2
Atom   8C    basis set group =>   2
Atom   9C    basis set group =>   2
Atom  10C    basis set group =>   2
Atom  11C    basis set group =>   2
Atom  12N    basis set group =>   3
Atom  13O    basis set group =>   1
Atom  14C    basis set group =>   2
Atom  15N    basis set group =>   3
Atom  16H    basis set group =>   4
Atom  17H    basis set group =>   4
Atom  18H    basis set group =>   4
Atom  19H    basis set group =>   4
Atom  20H    basis set group =>   4
Atom  21H    basis set group =>   4
---------------------------------
AUXILIARY/J BASIS SET INFORMATION
---------------------------------
There are 4 groups of distinct atoms

 Group   1 Type O   : 12s5p4d2f1g contracted to 6s4p3d1f1g pattern {711111/2111/211/2/1}
 Group   2 Type C   : 12s5p4d2f1g contracted to 6s4p3d1f1g pattern {711111/2111/211/2/1}
 Group   3 Type N   : 12s5p4d2f1g contracted to 6s4p3d1f1g pattern {711111/2111/211/2/1}
 Group   4 Type H   : 5s2p1d contracted to 3s1p1d pattern {311/2/1}

Atom   0O    basis set group =>   1
Atom   1C    basis set group =>   2
Atom   2O    basis set group =>   1
Atom   3C    basis set group =>   2
Atom   4C    basis set group =>   2
Atom   5C    basis set group =>   2
Atom   6C    basis set group =>   2
Atom   7C    basis set group =>   2
Atom   8C    basis set group =>   2
Atom   9C    basis set group =>   2
Atom  10C    basis set group =>   2
Atom  11C    basis set group =>   2
Atom  12N    basis set group =>   3
Atom  13O    basis set group =>   1
Atom  14C    basis set group =>   2
Atom  15N    basis set group =>   3
Atom  16H    basis set group =>   4
Atom  17H    basis set group =>   4
Atom  18H    basis set group =>   4
Atom  19H    basis set group =>   4
Atom  20H    basis set group =>   4
Atom  21H    basis set group =>   4


           ************************************************************
           *        Program running with 8 parallel MPI-processes     *
           *              working on a common directory               *
           ************************************************************
------------------------------------------------------------------------------
                             ORCA STARTUP CALCULATIONS
                           -- RI-GTO INTEGRALS CHOSEN --
------------------------------------------------------------------------------
------------------------------------------------------------------------------
                   ___                                                        
                  /   \      - P O W E R E D   B Y -                         
                 /     \                                                     
                 |  |  |   _    _      __       _____    __    __             
                 |  |  |  | |  | |    /  \     |  _  \  |  |  /  |          
                  \  \/   | |  | |   /    \    | | | |  |  | /  /          
                 / \  \   | |__| |  /  /\  \   | |_| |  |  |/  /          
                |  |  |   |  __  | /  /__\  \  |    /   |      \           
                |  |  |   | |  | | |   __   |  |    \   |  |\   \          
                \     /   | |  | | |  |  |  |  | |\  \  |  | \   \       
                 \___/    |_|  |_| |__|  |__|  |_| \__\ |__|  \__/        
                                                                              
                      - O R C A' S   B I G   F R I E N D -                    
                                      &                                       
                       - I N T E G R A L  F E E D E R -                       
                                                                              
 v1 FN, 2020, v2 2021, v3 2022-2024                                           
------------------------------------------------------------------------------


----------------------
SHARK INTEGRAL PACKAGE
----------------------

Number of atoms                             ...     22
Number of basis functions                   ...    254
Number of shells                            ...    114
Maximum angular momentum                    ...      2
Integral batch strategy                     ... SHARK/LIBINT Hybrid
RI-J (if used) integral strategy            ... SPLIT-RIJ (Revised 2003 algorithm where possible)
Printlevel                                  ...      1
Contraction scheme used                     ... SEGMENTED contraction
Prescreening option                         ... SCHWARTZ
   Thresh                                   ... 2.500e-11
   Tcut                                     ... 2.500e-12
   Tpresel                                  ... 2.500e-12 
Coulomb Range Separation                    ... NOT USED
Exchange Range Separation                   ... NOT USED
Multipole approximations                    ... NOT USED
Finite Nucleus Model                        ... NOT USED
CABS basis                                  ... NOT available
Auxiliary Coulomb fitting basis             ... AVAILABLE
   # of basis functions in Aux-J            ...    850
   # of shells in Aux-J                     ...    270
   Maximum angular momentum in Aux-J        ...      4
Auxiliary J/K fitting basis                 ... NOT available
Auxiliary Correlation fitting basis         ... NOT available
Auxiliary 'external' fitting basis          ... NOT available

Checking pre-screening integrals            ... done (  0.0 sec) Dimension = 114
   => SHARK Basis and OBASIS are compatible. Storing Pre-screening
Shell pair information
Shell pair cut-off parameter TPreSel        ...   2.5e-12
Total number of shell pairs                 ...      6555
Shell pairs after pre-screening             ...      5386
Total number of primitive shell pairs       ...     24979
Primitive shell pairs kept                  ...     13661
          la=0 lb=0:   1483 shell pairs
          la=1 lb=0:   1925 shell pairs
          la=1 lb=1:    649 shell pairs
          la=2 lb=0:    736 shell pairs
          la=2 lb=1:    497 shell pairs
          la=2 lb=2:     96 shell pairs

Checking whether 4 symmetric matrices of dimension 254 fit in memory
:Max Core in MB      =   3000.00
 MB in use           =      8.86
 MB left             =   2991.14
 MB needed           =      0.99
 Data fit in memory  = YES
Calculating RI/J V-Matrix + Cholesky decomp.... done (  0.0 sec)
Calculating Nuclear repulsion               ... done (  0.0 sec) ENN=   1000.906804090847 Eh

Diagonalization of the overlap matrix:
Smallest eigenvalue                        ... 2.390e-04
Time for diagonalization                   ...    0.004 sec
Threshold for overlap eigenvalues          ... 1.000e-07
Number of eigenvalues below threshold      ... 0
Time for construction of square roots      ...    0.002 sec
Total time needed                          ...    0.008 sec

-------------------
DFT GRID GENERATION
-------------------

General Integration Accuracy     IntAcc      ... 4.388
Radial Grid Type                 RadialGrid  ... OptM3 with GC (2021)
Angular Grid (max. ang.)         AngularGrid ... 4 (Lebedev-302)
Angular grid pruning method      GridPruning ... 4 (adaptive)
Weight generation scheme         WeightScheme... mBecke (2022)
Basis function cutoff            BFCut       ... 1.0000e-11
Integration weight cutoff        WCut        ... 1.0000e-14
Partially contracted basis set               ... off
Rotationally invariant grid construction     ... off
Angular grids for H and He will be reduced by one unit

Total number of grid points                  ...   115426
Total number of batches                      ...     1814
Average number of points per batch           ...       63
Average number of grid points per atom       ...     5247

--------------------
COSX GRID GENERATION
--------------------

GRIDX 1
-------
General Integration Accuracy     IntAcc      ... 3.816
Radial Grid Type                 RadialGrid  ... OptM3 with GC (2021)
Angular Grid (max. ang.)         AngularGrid ... 1 (Lebedev-50)
Angular grid pruning method      GridPruning ... 4 (adaptive)
Weight generation scheme         WeightScheme... mBecke (2022)
Basis function cutoff            BFCut       ... 1.0000e-11
Integration weight cutoff        WCut        ... 1.0000e-14
Partially contracted basis set               ... on
Rotationally invariant grid construction     ... off
Angular grids for H and He will be reduced by one unit

Total number of grid points                  ...    14661
Total number of batches                      ...      125
Average number of points per batch           ...      117
Average number of grid points per atom       ...      666
UseSFitting                                  ... on

GRIDX 2
-------
General Integration Accuracy     IntAcc      ... 4.020
Radial Grid Type                 RadialGrid  ... OptM3 with GC (2021)
Angular Grid (max. ang.)         AngularGrid ... 2 (Lebedev-110)
Angular grid pruning method      GridPruning ... 4 (adaptive)
Weight generation scheme         WeightScheme... mBecke (2022)
Basis function cutoff            BFCut       ... 1.0000e-11
Integration weight cutoff        WCut        ... 1.0000e-14
Partially contracted basis set               ... on
Rotationally invariant grid construction     ... off
Angular grids for H and He will be reduced by one unit

Total number of grid points                  ...    33093
Total number of batches                      ...      270
Average number of points per batch           ...      122
Average number of grid points per atom       ...     1504
UseSFitting                                  ... on

GRIDX 3
-------
General Integration Accuracy     IntAcc      ... 4.338
Radial Grid Type                 RadialGrid  ... OptM3 with GC (2021)
Angular Grid (max. ang.)         AngularGrid ... 3 (Lebedev-194)
Angular grid pruning method      GridPruning ... 4 (adaptive)
Weight generation scheme         WeightScheme... mBecke (2022)
Basis function cutoff            BFCut       ... 1.0000e-11
Integration weight cutoff        WCut        ... 1.0000e-14
Partially contracted basis set               ... on
Rotationally invariant grid construction     ... off
Angular grids for H and He will be reduced by one unit

Total number of grid points                  ...    72940
Total number of batches                      ...      582
Average number of points per batch           ...      125
Average number of grid points per atom       ...     3315
UseSFitting                                  ... on
Grids setup in   0.8 sec
Initializing property integral containers    ... done (  0.0 sec)

SHARK setup successfully completed in   1.0 seconds

Maximum memory used throughout the entire STARTUP-calculation: 29.0 MB


           ************************************************************
           *        Program running with 8 parallel MPI-processes     *
           *              working on a common directory               *
           ************************************************************
-------------------------------------------------------------------------------
                                 ORCA GUESS
                   Start orbitals & Density for SCF / CASSCF
-------------------------------------------------------------------------------

------------
SCF SETTINGS
------------
Hamiltonian:
 Density Functional     Method          .... DFT(GTOs)
 Exchange Functional    Exchange        .... B88
   X-Alpha parameter    XAlpha          ....  0.666667
   Becke's b parameter  XBeta           ....  0.004200
 Correlation Functional Correlation     .... LYP
 LDA part of GGA corr.  LDAOpt          .... VWN-5
 Gradients option       PostSCFGGA      .... off
 Hybrid DFT is turned on
   Fraction HF Exchange ScalHFX         ....  0.200000
   Scaling of DF-GGA-X  ScalDFX         ....  0.720000
   Scaling of DF-GGA-C  ScalDFC         ....  0.810000
   Scaling of DF-LDA-C  ScalLDAC        ....  1.000000
   Perturbative correction              ....  0.000000
   NL short-range parameter             ....  4.800000
 RI-approximation to the Coulomb term is turned on
   Number of AuxJ basis functions       .... 850
   RIJ-COSX (HFX calculated with COS-X)).... on


General Settings:
 Integral files         IntName         .... CMR_GOLD_043_correct_opt_pal8
 Hartree-Fock type      HFTyp           .... RHF
 Total Charge           Charge          ....    0
 Multiplicity           Mult            ....    1
 Number of Electrons    NEL             ....  110
 Basis Dimension        Dim             ....  254
 Nuclear Repulsion      ENuc            ....   1000.9068040908 Eh

Convergence Acceleration:
 AO-DIIS                CNVDIIS         .... on
   Start iteration      DIISMaxIt       ....    12
   Startup error        DIISStart       ....  0.200000
   # of expansion vecs  DIISMaxEq       ....     5
   Bias factor          DIISBfac        ....   1.050
   Max. coefficient     DIISMaxC        ....  10.000
 MO-DIIS                CNVKDIIS        .... off
 Trust-Rad. Augm. Hess. CNVTRAH         .... auto
   Auto Start mean grad. ratio tolernc. ....  1.125000
   Auto Start start iteration           ....    50
   Auto Start num. interpolation iter.  ....    10
   Max. Number of Micro iterations      ....    24
   Max. Number of Macro iterations      .... Maxiter - #DIIS iter
   Number of Davidson start vectors     ....     2
   Converg. threshold    (grad. norm)   ....   1.000e-05
   Grad. Scal. Fac. for Micro threshold ....   0.100
   Minimum threshold for Micro iter.    ....   1.000e-02
   NR start threshold (gradient norm)   ....   1.000e-04
   Initial trust radius                 ....   0.400
   Minimum AH scaling param. (alpha)    ....   1.000
   Maximum AH scaling param. (alpha)    .... 1000.000
   Quad. conv. algorithm                .... NR
   White noise on init. David. guess    .... on
   Maximum white noise                  ....   0.010
   Pseudo random numbers                .... off
   Inactive MOs                         .... canonical
   Orbital update algorithm             .... Taylor
   Preconditioner                       .... Diag
   Full preconditioner red. dimension   ....   250
 SOSCF                 CNVSOSCF           .... on
   Start iteration     SOSCFMaxIt         ....   150
   Startup grad/error  SOSCFStart         ....  0.003300
   Hessian update      SOSCFHessUp        .... L-BFGS
   Autom. constraints  SOSCFAutoConstrain .... off
 Level Shifting         CNVShift        .... on
   Level shift para.    LevelShift      ....    0.2500
   Turn off err/grad.   ShiftErr        ....    0.0010
 Zerner damping         CNVZerner       .... off
 Static damping         CNVDamp         .... on
   Fraction old density DampFac         ....    0.7000
   Max. Damping (<1)    DampMax         ....    0.9800
   Min. Damping (>=0)   DampMin         ....    0.0000
   Turn off err/grad.   DampErr         ....    0.1000

SCF Procedure:
 Maximum # iterations   MaxIter         ....   125
 SCF integral mode      SCFMode         .... Direct
   Integral package                     .... SHARK and LIBINT hybrid scheme
 Reset frequency        DirectResetFreq ....    20
 Integral Threshold     Thresh          ....  2.500e-11 Eh
 Primitive CutOff       TCut            ....  2.500e-12 Eh

Convergence Tolerance:
 Convergence Check Mode ConvCheckMode   .... Total+1el-Energy
 Convergence forced     ConvForced      .... 0
 Energy Change          TolE            ....  1.000e-08 Eh
 1-El. energy change                    ....  1.000e-05 Eh
 Orbital Gradient       TolG            ....  1.000e-05
 Orbital Rotation angle TolX            ....  1.000e-05
 DIIS Error             TolErr          ....  5.000e-07

------------------------------
INITIAL GUESS: MODEL POTENTIAL
------------------------------
Loading Hartree-Fock densities                     ... done
Calculating cut-offs                               ... done
Initializing the effective Hamiltonian             ... done
Setting up the integral package (SHARK)            ... done
Starting the Coulomb interaction                   ... done (   0.0 sec)
Making the grid                                    ... done (   0.2 sec)
Mapping shells                                     ... done
Starting the XC term evaluation                    ... done (   0.0 sec)
  promolecular density results
     # of electrons  =    109.996525449
     EX              =    -96.048157501
     EC              =     -3.839726559
     EX+EC           =    -99.887884061
Transforming the Hamiltonian                       ... done (   0.0 sec)
Diagonalizing the Hamiltonian                      ... done (   0.0 sec)
Back transforming the eigenvectors                 ... done (   0.0 sec)
Now organizing SCF variables                       ... done
                      ------------------
                      INITIAL GUESS DONE (   0.3 sec)
                      ------------------
             **** ENERGY FILE WAS UPDATED (CMR_GOLD_043_correct_opt_pal8.en.tmp) ****
Finished Guess after   0.4 sec
Maximum memory used throughout the entire GUESS-calculation: 12.3 MB


           ************************************************************
           *        Program running with 8 parallel MPI-processes     *
           *              working on a common directory               *
           ************************************************************

-------------------------------------------------------------------------------------------
                                      ORCA LEAN-SCF
                              memory conserving SCF solver
-------------------------------------------------------------------------------------------

--------------------
CPCM SOLVATION MODEL
--------------------
CPCM parameters:
  Epsilon                                         ...      80.1510
  Refrac                                          ...       1.3328
  Rsolv                                           ...       1.3000
  Surface type                                    ... GAUSSIAN VDW
  Discretization scheme                           ... Constant charge density
    Threshold for H atoms                         ...       5.0000 (charges/Ang^2)
    Threshold for non-H atoms                     ...       5.0000 (charges/Ang^2)
  Epsilon function type                           ...         CPCM
Solvent:                                          ... WATER
Radii:
  Scheme                                          ... Element-dependent radii
  Radius for O  used is    3.4469 Bohr (=   1.8240 Ang.)
  Radius for C  used is    3.8550 Bohr (=   2.0400 Ang.)
  Radius for N  used is    3.5149 Bohr (=   1.8600 Ang.)
  Radius for H  used is    2.4944 Bohr (=   1.3200 Ang.)
Calculating surface                               ...        done! (  0.0s)
Cavity surface points                             ...         2144
Cavity Volume                                     ...    1576.9790
Cavity Surface-area                               ...     820.1566
Calculating surface distance matrix               ...        done! (  0.0s)
Performing Cholesky decomposition & store         ...        done! (  0.1s)
Overall time for CPCM initialization              ...                 0.1s

----------------------------------------D-I-I-S--------------------------------------------
Iteration    Energy (Eh)           Delta-E    RMSDP     MaxDP     DIISErr   Damp  Time(sec)
-------------------------------------------------------------------------------------------
               ***  Starting incremental Fock matrix formation  ***
    1    -756.6508333184435742     0.00e+00  9.48e-03  1.32e-01  2.73e-01  0.700   1.0
    2    -756.7976899893114933    -1.47e-01  6.10e-03  8.17e-02  1.03e-01  0.700   0.6
                               ***Turning on AO-DIIS***
    3    -756.8515671451057187    -5.39e-02  2.65e-03  1.66e-02  3.53e-02  0.700   0.6
    4    -756.8857669862088642    -3.42e-02  4.97e-03  3.74e-02  1.76e-02  0.000   0.7
    5    -756.9617622782400304    -7.60e-02  7.52e-04  6.68e-03  4.93e-03  0.000   0.7
                              *** Initializing SOSCF ***
---------------------------------------S-O-S-C-F--------------------------------------
Iteration    Energy (Eh)           Delta-E    RMSDP     MaxDP     MaxGrad    Time(sec)
--------------------------------------------------------------------------------------
    6    -756.9621862657561451    -4.24e-04  2.70e-04  2.41e-03  2.59e-03     0.9
               *** Restarting incremental Fock matrix formation ***
    7    -756.9621825307206109     3.74e-06  2.42e-04  3.81e-03  4.30e-04     1.4
    8    -756.9621645097622604     1.80e-05  1.48e-04  2.95e-03  1.04e-03     1.2
    9    -756.9621923993217933    -2.79e-05  3.54e-05  3.29e-04  6.78e-05     1.1
   10    -756.9621920418123864     3.58e-07  2.18e-05  2.20e-04  1.01e-04     1.1
   11    -756.9621926720362808    -6.30e-07  6.19e-06  7.81e-05  1.61e-05     1.0
   12    -756.9621926807424188    -8.71e-09  3.43e-06  4.80e-05  1.97e-05     0.9
                 **** Energy Check signals convergence ****

               *****************************************************
               *                     SUCCESS                       *
               *           SCF CONVERGED AFTER  12 CYCLES          *
               *****************************************************

Recomputing exchange energy using gridx3       ... done (    1.922 sec)
Old exchange energy                            :    -19.356638194 Eh
New exchange energy                            :    -19.356695615 Eh
Exchange energy change after final integration :     -0.000057421 Eh
Total energy after final integration           :   -756.962250099 Eh
             **** ENERGY FILE WAS UPDATED (CMR_GOLD_043_correct_opt_pal8.en.tmp) ****

----------------
TOTAL SCF ENERGY
----------------

Total Energy       :       -756.96225009925547 Eh          -20597.99001 eV

Components:
Nuclear Repulsion  :       1000.90680409084689 Eh           27236.05879 eV
Electronic Energy  :      -1757.85109142433248 Eh          -47833.56001 eV
One Electron Energy:      -3015.34199188522598 Eh          -82051.62702 eV
Two Electron Energy:       1257.49090046089350 Eh           34218.06701 eV
CPCM Dielectric    :         -0.01790534436308 Eh              -0.48723 eV

Virial components:
Potential Energy   :      -1507.17676632441135 Eh          -41012.36484 eV
Kinetic Energy     :        750.21451622515576 Eh           20414.37483 eV
Virial Ratio       :          2.00899440590413

DFT components:
N(Alpha)           :       55.000020339170 electrons
N(Beta)            :       55.000020339170 electrons
N(Total)           :      110.000040678340 electrons
E(X)               :      -77.060492866265 Eh       
E(C)               :       -4.510136947190 Eh       
E(XC)              :      -81.570629813455 Eh       

CPCM Solvation Model Properties:
Surface-charge          :         -0.01605358672637
Corrected charge        :         -0.00000000000000
Outlying charge corr.   :          0.00001606369733 Eh               0.00044 eV
Free-energy (cav+disp)  :  This term is not implemented in the current solvation scheme

---------------
SCF CONVERGENCE
---------------

  Last Energy change         ...    8.7061e-09  Tolerance :   1.0000e-08
  Last MAX-Density change    ...    4.8034e-05  Tolerance :   1.0000e-07
  Last RMS-Density change    ...    3.4333e-06  Tolerance :   5.0000e-09
  Last DIIS Error            ...    2.5896e-03  Tolerance :   5.0000e-07
  Last Orbital Gradient      ...    1.9744e-05  Tolerance :   1.0000e-05
  Last Orbital Rotation      ...    2.0004e-05  Tolerance :   1.0000e-05


----------------
ORBITAL ENERGIES
----------------

  NO   OCC          E(Eh)            E(eV) 
   0   2.0000     -19.255193      -523.9604 
   1   2.0000     -19.209856      -522.7267 
   2   2.0000     -19.130946      -520.5795 
   3   2.0000     -14.404562      -391.9680 
   4   2.0000     -14.356527      -390.6610 
   5   2.0000     -10.332682      -281.1666 
   6   2.0000     -10.306978      -280.4671 
   7   2.0000     -10.284203      -279.8474 
   8   2.0000     -10.273773      -279.5636 
   9   2.0000     -10.248280      -278.8699 
  10   2.0000     -10.225230      -278.2426 
  11   2.0000     -10.216263      -277.9987 
  12   2.0000     -10.203603      -277.6542 
  13   2.0000     -10.202287      -277.6184 
  14   2.0000     -10.201878      -277.6072 
  15   2.0000     -10.196115      -277.4504 
  16   2.0000      -1.176028       -32.0013 
  17   2.0000      -1.108761       -30.1709 
  18   2.0000      -1.022275       -27.8175 
  19   2.0000      -0.954230       -25.9659 
  20   2.0000      -0.884119       -24.0581 
  21   2.0000      -0.866412       -23.5763 
  22   2.0000      -0.830654       -22.6033 
  23   2.0000      -0.759692       -20.6723 
  24   2.0000      -0.754459       -20.5299 
  25   2.0000      -0.699859       -19.0441 
  26   2.0000      -0.666513       -18.1367 
  27   2.0000      -0.650533       -17.7019 
  28   2.0000      -0.630975       -17.1697 
  29   2.0000      -0.610044       -16.6001 
  30   2.0000      -0.566481       -15.4147 
  31   2.0000      -0.547706       -14.9038 
  32   2.0000      -0.526891       -14.3374 
  33   2.0000      -0.511270       -13.9124 
  34   2.0000      -0.504314       -13.7231 
  35   2.0000      -0.482205       -13.1215 
  36   2.0000      -0.479521       -13.0484 
  37   2.0000      -0.461479       -12.5575 
  38   2.0000      -0.453858       -12.3501 
  39   2.0000      -0.447386       -12.1740 
  40   2.0000      -0.445475       -12.1220 
  41   2.0000      -0.424852       -11.5608 
  42   2.0000      -0.400493       -10.8980 
  43   2.0000      -0.394691       -10.7401 
  44   2.0000      -0.386787       -10.5250 
  45   2.0000      -0.373929       -10.1751 
  46   2.0000      -0.362756        -9.8711 
  47   2.0000      -0.350600        -9.5403 
  48   2.0000      -0.349622        -9.5137 
  49   2.0000      -0.330685        -8.9984 
  50   2.0000      -0.318814        -8.6754 
  51   2.0000      -0.299446        -8.1483 
  52   2.0000      -0.293579        -7.9887 
  53   2.0000      -0.260702        -7.0941 
  54   2.0000      -0.249955        -6.8016 
  55   0.0000      -0.097027        -2.6402 
  56   0.0000      -0.042282        -1.1505 
  57   0.0000      -0.020951        -0.5701 
  58   0.0000      -0.013897        -0.3782 
  59   0.0000       0.032900         0.8953 
  60   0.0000       0.068676         1.8688 
  61   0.0000       0.080949         2.2027 
  62   0.0000       0.092694         2.5223 
  63   0.0000       0.109264         2.9732 
  64   0.0000       0.114948         3.1279 
  65   0.0000       0.117521         3.1979 
*Only the first 10 virtual orbitals were printed.

                    ********************************
                    * MULLIKEN POPULATION ANALYSIS *
                    ********************************

-----------------------
MULLIKEN ATOMIC CHARGES
-----------------------
   0 O :   -0.254817
   1 C :    0.257581
   2 O :   -0.267255
   3 C :    0.161275
   4 C :   -0.029380
   5 C :    0.028115
   6 C :    0.019369
   7 C :   -0.058295
   8 C :    0.057886
   9 C :    0.245513
  10 C :   -0.170533
  11 C :   -0.020598
  12 N :   -0.033550
  13 O :   -0.172385
  14 C :    0.273391
  15 N :   -0.180094
  16 H :    0.006533
  17 H :    0.017605
  18 H :    0.009758
  19 H :   -0.002392
  20 H :    0.026842
  21 H :    0.085433
Sum of atomic charges:    0.0000000

--------------------------------
MULLIKEN REDUCED ORBITAL CHARGES
--------------------------------
  0 O s       :     3.720416  s :     3.720416
      pz      :     1.422107  p :     4.517242
      px      :     1.765404
      py      :     1.329731
      dz2     :     0.002091  d :     0.017159
      dxz     :     0.000205
      dyz     :     0.005336
      dx2y2   :     0.005861
      dxy     :     0.003666

  1 C s       :     3.018655  s :     3.018655
      pz      :     0.839684  p :     2.597723
      px      :     0.890203
      py      :     0.867836
      dz2     :     0.008863  d :     0.126041
      dxz     :     0.010437
      dyz     :     0.024580
      dx2y2   :     0.029749
      dxy     :     0.052412

  2 O s       :     3.731184  s :     3.731184
      pz      :     1.683249  p :     4.520365
      px      :     1.573013
      py      :     1.264103
      dz2     :     0.002215  d :     0.015706
      dxz     :     0.002223
      dyz     :     0.002375
      dx2y2   :     0.004169
      dxy     :     0.004724

  3 C s       :     3.032904  s :     3.032904
      pz      :     0.994606  p :     2.738498
      px      :     1.007213
      py      :     0.736679
      dz2     :     0.005684  d :     0.067323
      dxz     :     0.007981
      dyz     :     0.012252
      dx2y2   :     0.023571
      dxy     :     0.017834

  4 C s       :     3.278678  s :     3.278678
      pz      :     1.003006  p :     2.717722
      px      :     0.839635
      py      :     0.875081
      dz2     :     0.002942  d :     0.032980
      dxz     :     0.003679
      dyz     :     0.005306
      dx2y2   :     0.008724
      dxy     :     0.012330

  5 C s       :     3.179432  s :     3.179432
      pz      :     0.948254  p :     2.756380
      px      :     0.886672
      py      :     0.921454
      dz2     :     0.002705  d :     0.036073
      dxz     :     0.004149
      dyz     :     0.005543
      dx2y2   :     0.011426
      dxy     :     0.012249

  6 C s       :     3.171860  s :     3.171860
      pz      :     0.980661  p :     2.774052
      px      :     0.950861
      py      :     0.842530
      dz2     :     0.002547  d :     0.034720
      dxz     :     0.006037
      dyz     :     0.002741
      dx2y2   :     0.012563
      dxy     :     0.010833

  7 C s       :     3.292132  s :     3.292132
      pz      :     0.960015  p :     2.731958
      px      :     0.832943
      py      :     0.939000
      dz2     :     0.002977  d :     0.034205
      dxz     :     0.003407
      dyz     :     0.005754
      dx2y2   :     0.011103
      dxy     :     0.010963

  8 C s       :     3.081268  s :     3.081268
      pz      :     1.034993  p :     2.820627
      px      :     0.936921
      py      :     0.848713
      dz2     :     0.003611  d :     0.040219
      dxz     :     0.005679
      dyz     :     0.006526
      dx2y2   :     0.010962
      dxy     :     0.013441

  9 C s       :     3.062633  s :     3.062633
      pz      :     0.942036  p :     2.650396
      px      :     0.882668
      py      :     0.825692
      dz2     :     0.003664  d :     0.041459
      dxz     :     0.005740
      dyz     :     0.007397
      dx2y2   :     0.012399
      dxy     :     0.012258

 10 C s       :     3.370008  s :     3.370008
      pz      :     0.969671  p :     2.769429
      px      :     0.887343
      py      :     0.912415
      dz2     :     0.002872  d :     0.031096
      dxz     :     0.002170
      dyz     :     0.005234
      dx2y2   :     0.009661
      dxy     :     0.011160

 11 C s       :     3.098751  s :     3.098751
      pz      :     0.970012  p :     2.847820
      px      :     0.958232
      py      :     0.919576
      dz2     :     0.005974  d :     0.074028
      dxz     :     0.009397
      dyz     :     0.012648
      dx2y2   :     0.024087
      dxy     :     0.021922

 12 N s       :     3.658487  s :     3.658487
      pz      :     1.239709  p :     3.334409
      px      :     0.754808
      py      :     1.339892
      dz2     :     0.005254  d :     0.040654
      dxz     :     0.005898
      dyz     :     0.005833
      dx2y2   :     0.015447
      dxy     :     0.008223

 13 O s       :     3.775095  s :     3.775095
      pz      :     1.642034  p :     4.372870
      px      :     1.296122
      py      :     1.434714
      dz2     :     0.002996  d :     0.024420
      dxz     :     0.003522
      dyz     :     0.003494
      dx2y2   :     0.009769
      dxy     :     0.004639

 14 C s       :     3.127629  s :     3.127629
      pz      :     0.881554  p :     2.516043
      px      :     0.892235
      py      :     0.742255
      dz2     :     0.006266  d :     0.082937
      dxz     :     0.008285
      dyz     :     0.014586
      dx2y2   :     0.033705
      dxy     :     0.020095

 15 N s       :     3.548946  s :     3.548946
      pz      :     1.194182  p :     3.601092
      px      :     0.991953
      py      :     1.414957
      dz2     :     0.003442  d :     0.030056
      dxz     :     0.003986
      dyz     :     0.005533
      dx2y2   :     0.004424
      dxy     :     0.012671

 16 H s       :     0.970012  s :     0.970012
      pz      :     0.004477  p :     0.023455
      px      :     0.013186
      py      :     0.005791

 17 H s       :     0.959203  s :     0.959203
      pz      :     0.004435  p :     0.023193
      px      :     0.011818
      py      :     0.006940

 18 H s       :     0.967061  s :     0.967061
      pz      :     0.004811  p :     0.023180
      px      :     0.003285
      py      :     0.015084

 19 H s       :     0.978150  s :     0.978150
      pz      :     0.004441  p :     0.024242
      px      :     0.013394
      py      :     0.006407

 20 H s       :     0.949378  s :     0.949378
      pz      :     0.004334  p :     0.023780
      px      :     0.010432
      py      :     0.009014

 21 H s       :     0.891396  s :     0.891396
      pz      :     0.003879  p :     0.023171
      px      :     0.016284
      py      :     0.003008



                     *******************************
                     * LOEWDIN POPULATION ANALYSIS *
                     *******************************

----------------------
LOEWDIN ATOMIC CHARGES
----------------------
   0 O :   -0.217898
   1 C :    0.095069
   2 O :   -0.057662
   3 C :    0.081317
   4 C :   -0.033127
   5 C :   -0.000953
   6 C :   -0.025674
   7 C :   -0.005328
   8 C :   -0.046540
   9 C :    0.008725
  10 C :   -0.026364
  11 C :    0.005821
  12 N :   -0.057215
  13 O :    0.013402
  14 C :    0.129556
  15 N :   -0.124106
  16 H :    0.046474
  17 H :    0.042970
  18 H :    0.039691
  19 H :    0.032826
  20 H :    0.045906
  21 H :    0.053110

-------------------------------
LOEWDIN REDUCED ORBITAL CHARGES
-------------------------------
  0 O s       :     3.552998  s :     3.552998
      pz      :     1.419270  p :     4.635798
      px      :     1.764833
      py      :     1.451695
      dz2     :     0.004076  d :     0.029102
      dxz     :     0.000278
      dyz     :     0.007310
      dx2y2   :     0.011967
      dxy     :     0.005471

  1 C s       :     2.849397  s :     2.849397
      pz      :     0.838651  p :     2.773936
      px      :     0.959877
      py      :     0.975408
      dz2     :     0.019001  d :     0.281598
      dxz     :     0.020866
      dyz     :     0.047814
      dx2y2   :     0.071897
      dxy     :     0.122020

  2 O s       :     3.450737  s :     3.450737
      pz      :     1.662193  p :     4.576756
      px      :     1.600567
      py      :     1.313996
      dz2     :     0.004033  d :     0.030168
      dxz     :     0.002717
      dyz     :     0.004593
      dx2y2   :     0.008711
      dxy     :     0.010114

  3 C s       :     2.845407  s :     2.845407
      pz      :     0.985831  p :     2.916507
      px      :     1.095195
      py      :     0.835480
      dz2     :     0.012007  d :     0.156769
      dxz     :     0.016578
      dyz     :     0.024394
      dx2y2   :     0.056835
      dxy     :     0.046955

  4 C s       :     2.861449  s :     2.861449
      pz      :     0.992263  p :     3.084381
      px      :     1.033363
      py      :     1.058755
      dz2     :     0.007016  d :     0.087298
      dxz     :     0.007301
      dyz     :     0.011626
      dx2y2   :     0.026382
      dxy     :     0.034974

  5 C s       :     2.859869  s :     2.859869
      pz      :     0.937941  p :     3.048303
      px      :     1.056997
      py      :     1.053365
      dz2     :     0.006499  d :     0.092781
      dxz     :     0.008336
      dyz     :     0.012057
      dx2y2   :     0.032069
      dxy     :     0.033821

  6 C s       :     2.860867  s :     2.860867
      pz      :     0.971328  p :     3.074656
      px      :     1.061605
      py      :     1.041723
      dz2     :     0.006179  d :     0.090151
      dxz     :     0.013340
      dyz     :     0.005012
      dx2y2   :     0.034755
      dxy     :     0.030864

  7 C s       :     2.862408  s :     2.862408
      pz      :     0.953315  p :     3.054310
      px      :     1.063268
      py      :     1.037727
      dz2     :     0.006790  d :     0.088610
      dxz     :     0.006697
      dyz     :     0.012756
      dx2y2   :     0.030986
      dxy     :     0.031381

  8 C s       :     2.841759  s :     2.841759
      pz      :     1.020219  p :     3.098379
      px      :     1.023317
      py      :     1.054843
      dz2     :     0.008426  d :     0.106402
      dxz     :     0.011719
      dyz     :     0.013636
      dx2y2   :     0.033125
      dxy     :     0.039495

  9 C s       :     2.852360  s :     2.852360
      pz      :     0.931005  p :     3.030300
      px      :     1.022919
      py      :     1.076376
      dz2     :     0.008741  d :     0.108614
      dxz     :     0.011959
      dyz     :     0.015155
      dx2y2   :     0.036460
      dxy     :     0.036299

 10 C s       :     2.878730  s :     2.878730
      pz      :     0.962820  p :     3.061982
      px      :     1.038699
      py      :     1.060462
      dz2     :     0.007426  d :     0.085652
      dxz     :     0.004872
      dyz     :     0.010871
      dx2y2   :     0.028314
      dxy     :     0.034170

 11 C s       :     2.856984  s :     2.856984
      pz      :     0.951727  p :     2.966479
      px      :     1.015223
      py      :     0.999529
      dz2     :     0.012866  d :     0.170716
      dxz     :     0.016943
      dyz     :     0.025119
      dx2y2   :     0.058162
      dxy     :     0.057626

 12 N s       :     3.367641  s :     3.367641
      pz      :     1.247606  p :     3.610964
      px      :     0.906617
      py      :     1.456741
      dz2     :     0.010117  d :     0.078610
      dxz     :     0.011065
      dyz     :     0.007658
      dx2y2   :     0.033403
      dxy     :     0.016367

 13 O s       :     3.502996  s :     3.502996
      pz      :     1.618621  p :     4.440061
      px      :     1.333061
      py      :     1.488380
      dz2     :     0.005142  d :     0.043540
      dxz     :     0.005611
      dyz     :     0.005191
      dx2y2   :     0.019012
      dxy     :     0.008585

 14 C s       :     2.882937  s :     2.882937
      pz      :     0.886176  p :     2.805614
      px      :     1.047764
      py      :     0.871675
      dz2     :     0.013421  d :     0.181893
      dxz     :     0.013544
      dyz     :     0.029585
      dx2y2   :     0.076300
      dxy     :     0.049042

 15 N s       :     3.260573  s :     3.260573
      pz      :     1.184365  p :     3.802484
      px      :     1.124510
      py      :     1.493610
      dz2     :     0.006885  d :     0.061048
      dxz     :     0.008465
      dyz     :     0.006416
      dx2y2   :     0.009084
      dxy     :     0.030199

 16 H s       :     0.883387  s :     0.883387
      pz      :     0.014547  p :     0.070140
      px      :     0.038171
      py      :     0.017421

 17 H s       :     0.888672  s :     0.888672
      pz      :     0.013864  p :     0.068358
      px      :     0.033967
      py      :     0.020526

 18 H s       :     0.891853  s :     0.891853
      pz      :     0.015062  p :     0.068456
      px      :     0.010888
      py      :     0.042507

 19 H s       :     0.893531  s :     0.893531
      pz      :     0.014050  p :     0.073643
      px      :     0.039818
      py      :     0.019776

 20 H s       :     0.880212  s :     0.880212
      pz      :     0.014852  p :     0.073881
      px      :     0.032927
      py      :     0.026102

 21 H s       :     0.873458  s :     0.873458
      pz      :     0.012694  p :     0.073432
      px      :     0.049451
      py      :     0.011288



                      *****************************
                      * MAYER POPULATION ANALYSIS *
                      *****************************

  NA   - Mulliken gross atomic population
  ZA   - Total nuclear charge
  QA   - Mulliken gross atomic charge
  VA   - Mayer's total valence
  BVA  - Mayer's bonded valence
  FA   - Mayer's free valence

  ATOM       NA         ZA         QA         VA         BVA        FA
  0 O      8.2548     8.0000    -0.2548     2.2636     2.2636    -0.0000
  1 C      5.7424     6.0000     0.2576     4.2516     4.2516    -0.0000
  2 O      8.2673     8.0000    -0.2673     2.2341     2.2341    -0.0000
  3 C      5.8387     6.0000     0.1613     3.8504     3.8504     0.0000
  4 C      6.0294     6.0000    -0.0294     3.8293     3.8293    -0.0000
  5 C      5.9719     6.0000     0.0281     3.7935     3.7935    -0.0000
  6 C      5.9806     6.0000     0.0194     3.7991     3.7991    -0.0000
  7 C      6.0583     6.0000    -0.0583     3.7960     3.7960     0.0000
  8 C      5.9421     6.0000     0.0579     3.7922     3.7922     0.0000
  9 C      5.7545     6.0000     0.2455     3.6143     3.6143     0.0000
 10 C      6.1705     6.0000    -0.1705     3.7479     3.7479     0.0000
 11 C      6.0206     6.0000    -0.0206     4.1334     4.1334    -0.0000
 12 N      7.0336     7.0000    -0.0336     2.8522     2.8522    -0.0000
 13 O      8.1724     8.0000    -0.1724     2.3327     2.3327    -0.0000
 14 C      5.7266     6.0000     0.2734     3.9485     3.9485    -0.0000
 15 N      7.1801     7.0000    -0.1801     3.1133     3.1133     0.0000
 16 H      0.9935     1.0000     0.0065     0.9948     0.9948    -0.0000
 17 H      0.9824     1.0000     0.0176     0.9799     0.9799    -0.0000
 18 H      0.9902     1.0000     0.0098     0.9800     0.9800     0.0000
 19 H      1.0024     1.0000    -0.0024     1.0359     1.0359     0.0000
 20 H      0.9732     1.0000     0.0268     1.0335     1.0335     0.0000
 21 H      0.9146     1.0000     0.0854     0.9999     0.9999     0.0000

  Mayer bond orders larger than 0.100000
B(  0-O ,  1-C ) :   2.0733 B(  1-C ,  2-O ) :   1.0823 B(  1-C , 10-C ) :   1.0191 
B(  2-O ,  3-C ) :   1.0264 B(  3-C ,  4-C ) :   1.3638 B(  3-C ,  8-C ) :   1.3128 
B(  4-C ,  5-C ) :   1.3654 B(  4-C , 16-H ) :   0.9968 B(  5-C ,  6-C ) :   1.3423 
B(  5-C , 17-H ) :   0.9923 B(  6-C ,  7-C ) :   1.3933 B(  6-C , 18-H ) :   0.9894 
B(  7-C ,  8-C ) :   1.3200 B(  7-C , 19-H ) :   0.9831 B(  8-C ,  9-C ) :   1.0562 
B(  9-C , 10-C ) :   1.5889 B(  9-C , 11-C ) :   1.0212 B( 10-C , 20-H ) :   0.9612 
B( 11-C , 12-N ) :   1.6398 B( 11-C , 15-N ) :   1.3680 B( 12-N , 13-O ) :   0.9924 
B( 13-O , 14-C ) :   1.1770 B( 14-C , 15-N ) :   1.6672 B( 14-C , 21-H ) :   0.9737 


-------
TIMINGS
-------

Total SCF time: 0 days 0 hours 0 min 14 sec 

Total time                  ....      14.349 sec
Sum of individual times     ....      13.428 sec  ( 93.6%)

SCF preparation             ....       0.270 sec  (  1.9%)
Fock matrix formation       ....      12.049 sec  ( 84.0%)
  Startup                   ....       0.042 sec  (  0.3% of F)
  Split-RI-J                ....       1.007 sec  (  8.4% of F)
  Chain of spheres X        ....       7.865 sec  ( 65.3% of F)
  XC integration            ....       1.857 sec  ( 15.4% of F)
    Basis function eval.    ....       0.489 sec  ( 26.3% of XC)
    Density eval.           ....       0.347 sec  ( 18.7% of XC)
    XC-Functional eval.     ....       0.050 sec  (  2.7% of XC)
    XC-Potential eval.      ....       0.360 sec  ( 19.4% of XC)
  CPCM terms                ....       1.709 sec  ( 14.2% of F)
Diagonalization             ....       0.000 sec  (  0.0%)
Density matrix formation    ....       0.290 sec  (  2.0%)
Total Energy calculation    ....       0.125 sec  (  0.9%)
Population analysis         ....       0.053 sec  (  0.4%)
Orbital Transformation      ....       0.049 sec  (  0.3%)
Orbital Orthonormalization  ....       0.000 sec  (  0.0%)
DIIS solution               ....       0.293 sec  (  2.0%)
SOSCF solution              ....       0.299 sec  (  2.1%)
Finished LeanSCF after  14.5 sec

Maximum memory used throughout the entire LEANSCF-calculation: 21.8 MB


           ************************************************************
           *        Program running with 8 parallel MPI-processes     *
           *              working on a common directory               *
           ************************************************************

------------------------------------------------------------------------------
                         ORCA PROPERTY INTEGRAL CALCULATIONS
------------------------------------------------------------------------------

GBWName                                   ... CMR_GOLD_043_correct_opt_pal8.gbw
Number of atoms                           ...     22
Number of basis functions                 ...    254
Max core memory                           ...   3000 MB

Dipole integrals                          ... YES
Quadrupole integrals                      ...  NO
Linear momentum integrals                 ...  NO
Angular momentum integrals                ...  NO
Higher moments length integrals           ...  NO
Higher moments velocity integrals         ...  NO
Kinetic energy integrals                  ...  NO
GIAO right hand sides                     ...  NO
GIAO dipole derivative integrals          ...  NO
SOC integrals                             ...  NO
EPR diamagnetic integrals (GIAO)          ...  NO
EPR gauge integrals                       ...  NO
Field gradient integrals                  ...  NO (   0 nuclei)
Spin-dipole/Fermi contact integrals       ...  NO (   0 nuclei)
Contact density integrals                 ...  NO (   0 nuclei)
Nucleus-orbit integrals                   ...  NO (   0 nuclei)
Geometric perturbations                   ...  NO (  22 nuclei)

Choice of electric origin   ... Center of mass
Position of electric origin ... (  0.3674,  0.5922, -0.1323) 
Choice of magnetic origin   ... GIAO
Position of magnetic origin ... (  0.0000,  0.0000,  0.0000) 

Calculating integrals                     ... Electric Dipole (Length)     done (  0.0 sec)

Property integrals calculated in   0.0 sec

Maximum memory used throughout the entire PROPINT-calculation: 12.8 MB


-------------------------------------------------------------------------------
                          DFT DISPERSION CORRECTION                            
                                                                               
                              DFTD3 V3.1  Rev 1                                
                          USING Becke-Johnson damping                          
-------------------------------------------------------------------------------
The B3LYP functional is recognized
Active option DFTDOPT                   ...         4   

molecular C6(AA) [au] = 6992.664185 


            DFT-D V3
 parameters
 s6 scaling factor         :     1.0000 
 a1 scaling factor         :     0.3981 
 s8 scaling factor         :     1.9889 
 a2 scaling factor         :     4.4211 
 ad hoc parameters k1-k3   :    16.0000     1.3333    -4.0000 

 Edisp/kcal,au: -30.248249107204  -0.048203648121 
 E6   /kcal   : -13.880500010 
 E8   /kcal   : -16.367749097 
 % E8         :  54.111393486 

-------------------------   ----------------
Dispersion correction           -0.048203648
-------------------------   ----------------


[...]
 16:    447.04   0.000180    0.91  0.000126  (-0.000302 -0.002182 -0.011005)
 17:    478.78   0.000537    2.72  0.000350  (-0.007684 -0.016691  0.003563)
 18:    512.31   0.001786    9.03  0.001088  (-0.024049 -0.021874  0.005570)
 19:    535.77   0.000874    4.42  0.000509  (-0.001250 -0.004353 -0.022103)
 20:    616.29   0.003000   15.16  0.001519  (-0.002273  0.038347 -0.006604)
 21:    627.47   0.000045    0.23  0.000023  ( 0.000281 -0.000628  0.004698)
 22:    635.80   0.003544   17.91  0.001740  ( 0.002226  0.007958  0.040883)
 23:    662.90   0.004826   24.39  0.002272  (-0.046703 -0.008643  0.004029)
 24:    715.38   0.000839    4.24  0.000366  ( 0.000847  0.003360  0.018816)
 25:    773.36   0.002022   10.22  0.000816  (-0.017130  0.022740 -0.002279)
 26:    779.63   0.003486   17.62  0.001395  (-0.002430 -0.006774 -0.036653)
 27:    782.33   0.011916   60.22  0.004753  ( 0.003896  0.012624  0.067664)
 28:    815.66   0.006846   34.60  0.002619  ( 0.002254  0.009838  0.050172)
 29:    822.27   0.010210   51.60  0.003875  ( 0.062050 -0.004380 -0.002333)
 30:    906.06   0.000047    0.24  0.000016  ( 0.000197  0.000640  0.003972)
 31:    921.80   0.003102   15.68  0.001050  ( 0.001892  0.006532  0.031685)
 32:    926.67   0.003832   19.37  0.001291  ( 0.002569  0.005877  0.035348)
 33:    934.70   0.006771   34.22  0.002261  (-0.033524  0.033489 -0.003915)
 34:    963.37   0.009717   49.11  0.003148  ( 0.055799 -0.005576 -0.001722)
 35:    970.16   0.018573   93.86  0.005974  ( 0.006595  0.075638 -0.014482)
 36:    999.57   0.000468    2.37  0.000146  ( 0.000358  0.011876 -0.002227)
 37:   1000.58   0.000534    2.70  0.000166  ( 0.000704  0.002542  0.012627)
 38:   1035.55   0.000000    0.00  0.000000  (-0.000018 -0.000056 -0.000374)
 39:   1044.02   0.003043   15.38  0.000909  (-0.021857 -0.020129  0.005155)
 40:   1060.98   0.002920   14.75  0.000859  (-0.014960 -0.024615  0.005384)
 41:   1133.05   0.004033   20.38  0.001111  ( 0.007873  0.031651 -0.006863)
 42:   1135.83   0.011617   58.71  0.003192  ( 0.003816  0.055288 -0.010977)
 43:   1160.12   0.000911    4.60  0.000245  (-0.004262 -0.014735  0.003109)
 44:   1198.88   0.010876   54.96  0.002831  ( 0.046675  0.024500 -0.007219)
 45:   1207.99   0.025521  128.97  0.006593  (-0.056267 -0.056845  0.013981)
 46:   1275.76   0.000651    3.29  0.000159  ( 0.000768  0.012342 -0.002497)
 47:   1291.29   0.015810   79.90  0.003821  (-0.055603  0.026931 -0.001965)
 48:   1300.61   0.007217   36.47  0.001732  (-0.012716 -0.038795  0.008055)
 49:   1335.35   0.049860  251.97  0.011652  (-0.099575 -0.039527  0.013200)
 50:   1382.59   0.001519    7.68  0.000343  (-0.009443  0.015746 -0.002420)
 51:   1439.90   0.001818    9.19  0.000394  (-0.000635 -0.019526  0.003503)
 52:   1477.33   0.010864   54.90  0.002295  (-0.022727  0.041652 -0.006599)
 53:   1515.84   0.001323    6.68  0.000272  (-0.009345  0.013432 -0.002123)
 54:   1540.67   0.011987   60.58  0.002428  (-0.013266 -0.046497  0.009491)
 55:   1591.49   0.034839  176.06  0.006831  ( 0.037901 -0.072479  0.011905)
 56:   1609.53   0.016214   81.94  0.003144  (-0.052329 -0.019113  0.006336)
 57:   1662.06   0.031551  159.45  0.005924  (-0.030826 -0.068984  0.014659)
 58:   1669.66   0.010605   53.60  0.001982  ( 0.009009 -0.042938  0.007575)
 59:   1801.31   0.264236  1335.34  0.045777  ( 0.042614 -0.206423  0.036751)
 60:   3190.29   0.000586    2.96  0.000057  (-0.007006  0.002858 -0.000163)
 61:   3202.16   0.001737    8.78  0.000169  ( 0.002537  0.012522 -0.002451)
 62:   3212.57   0.000319    1.61  0.000031  ( 0.004505  0.003161 -0.000826)
 63:   3242.38   0.003067   15.50  0.000295  ( 0.013717  0.009984 -0.002704)
 64:   3246.51   0.003259   16.47  0.000313  (-0.017533 -0.002068  0.001259)
 65:   3264.79   0.002961   14.96  0.000283  ( 0.015427  0.006346 -0.002176)

* The epsilon (eps) is given for a Dirac delta lineshape.
** The dipole moment derivative (T) already includes vibrational overlap.

The first frequency considered to be a vibration is 6
The total number of vibrations considered is 60


--------------------------
THERMOCHEMISTRY AT 298.15K
--------------------------

Temperature         ...   298.15 K
Pressure            ...     1.00 atm
Total Mass          ...   214.18 AMU
Quasi RRHO          ...     True
Cut-Off Frequency   ...     1.00 cm^-1

Throughout the following assumptions are being made:
  (1) The electronic state is orbitally nondegenerate
  (2) There are no thermally accessible electronically excited states
  (3) Hindered rotations indicated by low frequency modes are not
      treated as such but are treated as vibrations and this may
      cause some error
  (4) All equations used are the standard statistical mechanics
      equations for an ideal gas
  (5) All vibrations are strictly harmonic

freq.      33.97  E(vib)   ...       0.55 
freq.      72.13  E(vib)   ...       0.50 
freq.     109.63  E(vib)   ...       0.45 
freq.     147.88  E(vib)   ...       0.41 
freq.     164.50  E(vib)   ...       0.39 
freq.     250.04  E(vib)   ...       0.31 
freq.     275.15  E(vib)   ...       0.28 
freq.     297.44  E(vib)   ...       0.27 
freq.     331.86  E(vib)   ...       0.24 
freq.     377.21  E(vib)   ...       0.21 
freq.     447.04  E(vib)   ...       0.17 
freq.     478.78  E(vib)   ...       0.15 
freq.     512.31  E(vib)   ...       0.14 
freq.     535.77  E(vib)   ...       0.12 
freq.     616.29  E(vib)   ...       0.09 
freq.     627.47  E(vib)   ...       0.09 
freq.     635.80  E(vib)   ...       0.09 
freq.     662.90  E(vib)   ...       0.08 
freq.     715.38  E(vib)   ...       0.07 
freq.     773.36  E(vib)   ...       0.05 
freq.     779.63  E(vib)   ...       0.05 
freq.     782.33  E(vib)   ...       0.05 
freq.     815.66  E(vib)   ...       0.05 
freq.     822.27  E(vib)   ...       0.05 
freq.     906.06  E(vib)   ...       0.03 
freq.     921.80  E(vib)   ...       0.03 
freq.     926.67  E(vib)   ...       0.03 
freq.     934.70  E(vib)   ...       0.03 
freq.     963.37  E(vib)   ...       0.03 
freq.     970.16  E(vib)   ...       0.03 
freq.     999.57  E(vib)   ...       0.02 
freq.    1000.58  E(vib)   ...       0.02 
freq.    1035.55  E(vib)   ...       0.02 
freq.    1044.02  E(vib)   ...       0.02 
freq.    1060.98  E(vib)   ...       0.02 
freq.    1133.05  E(vib)   ...       0.01 
freq.    1135.83  E(vib)   ...       0.01 
freq.    1160.12  E(vib)   ...       0.01 
freq.    1198.88  E(vib)   ...       0.01 
freq.    1207.99  E(vib)   ...       0.01 
freq.    1275.76  E(vib)   ...       0.01 
freq.    1291.29  E(vib)   ...       0.01 
freq.    1300.61  E(vib)   ...       0.01 
freq.    1335.35  E(vib)   ...       0.01 
freq.    1382.59  E(vib)   ...       0.01 
freq.    1439.90  E(vib)   ...       0.00 
freq.    1477.33  E(vib)   ...       0.00 
freq.    1515.84  E(vib)   ...       0.00 
freq.    1540.67  E(vib)   ...       0.00 
freq.    1591.49  E(vib)   ...       0.00 
freq.    1609.53  E(vib)   ...       0.00 
freq.    1662.06  E(vib)   ...       0.00 
freq.    1669.66  E(vib)   ...       0.00 
freq.    1801.31  E(vib)   ...       0.00 
freq.    3190.29  E(vib)   ...       0.00 
freq.    3202.16  E(vib)   ...       0.00 
freq.    3212.57  E(vib)   ...       0.00 
freq.    3242.38  E(vib)   ...       0.00 
freq.    3246.51  E(vib)   ...       0.00 
freq.    3264.79  E(vib)   ...       0.00 

------------
INNER ENERGY
------------

The inner energy is: U= E(el) + E(ZPE) + E(vib) + E(rot) + E(trans)
    E(el)   - is the total energy from the electronic structure calculation
              = E(kin-el) + E(nuc-el) + E(el-el) + E(nuc-nuc)
    E(ZPE)  - the the zero temperature vibrational energy from the frequency calculation
    E(vib)  - the the finite temperature correction to E(ZPE) due to population
              of excited vibrational states
    E(rot)  - is the rotational thermal energy
    E(trans)- is the translational thermal energy

Summary of contributions to the inner energy U:
Electronic energy                ...   -757.01869619 Eh
Zero point energy                ...      0.15518021 Eh      97.38 kcal/mol
Thermal vibrational correction   ...      0.00834166 Eh       5.23 kcal/mol
Thermal rotational correction    ...      0.00141627 Eh       0.89 kcal/mol
Thermal translational correction ...      0.00141627 Eh       0.89 kcal/mol
-----------------------------------------------------------------------
Total thermal energy                   -756.85234178 Eh


Summary of corrections to the electronic energy:
(perhaps to be used in another calculation)
Total thermal correction                  0.01117420 Eh       7.01 kcal/mol
Non-thermal (ZPE) correction              0.15518021 Eh      97.38 kcal/mol
-----------------------------------------------------------------------
Total correction                          0.16635441 Eh     104.39 kcal/mol


--------
ENTHALPY
--------

The enthalpy is H = U + kB*T
                kB is Boltzmann's constant
Total thermal energy              ...   -756.85234178 Eh 
Thermal Enthalpy correction       ...      0.00094421 Eh       0.59 kcal/mol
-----------------------------------------------------------------------
Total Enthalpy                    ...   -756.85139757 Eh


Note: Only C1 symmetry has been detected, increase convergence thresholds 
      if your molecule has a higher symmetry. Symmetry factor of 1.0 is   
      used for the rotational entropy correction. 
 

Note: Rotational entropy computed according to Herzberg 
Infrared and Raman Spectra, Chapter V,1, Van Nostrand Reinhold, 1945 
Point Group:  C1, Symmetry Number:   1  
Rotational constants in cm-1:     0.027413     0.014789     0.009606 

Vibrational entropy computed according to the QRRHO of S. Grimme
Chem.Eur.J. 2012 18 9955 using a reference frequency of 100.0 cm-1


-------
ENTROPY
-------

The entropy contributions are T*S = T*(S(el)+S(vib)+S(rot)+S(trans))
     S(el)   - electronic entropy
     S(vib)  - vibrational entropy
     S(rot)  - rotational entropy
     S(trans)- translational entropy
The entropies will be listed as multiplied by the temperature to get
units of energy

Electronic entropy                ...      0.00000000 Eh      0.00 kcal/mol
Vibrational entropy               ...      0.01416805 Eh      8.89 kcal/mol
Rotational entropy                ...      0.01539113 Eh      9.66 kcal/mol
Translational entropy             ...      0.01994994 Eh     12.52 kcal/mol
-----------------------------------------------------------------------
Final entropy term                ...      0.04950913 Eh     31.07 kcal/mol

In case the symmetry of your molecule has not been determined correctly
or in case you have a reason to use a different symmetry number we print 
out the resulting rotational entropy values for sn=1,12:

 non-linear molecules -----------------------------------
|  sn= 1 | S(rot)=       0.01539113 Eh      9.66 kcal/mol|
|  sn= 2 | S(rot)=       0.01473668 Eh      9.25 kcal/mol|
|  sn= 3 | S(rot)=       0.01435384 Eh      9.01 kcal/mol|
|  sn= 4 | S(rot)=       0.01408222 Eh      8.84 kcal/mol|
|  sn= 5 | S(rot)=       0.01387153 Eh      8.70 kcal/mol|
|  sn= 6 | S(rot)=       0.01369939 Eh      8.60 kcal/mol|
|  sn= 7 | S(rot)=       0.01355384 Eh      8.51 kcal/mol|
|  sn= 8 | S(rot)=       0.01342776 Eh      8.43 kcal/mol|
|  sn= 9 | S(rot)=       0.01331656 Eh      8.36 kcal/mol|
|  sn=10 | S(rot)=       0.01321708 Eh      8.29 kcal/mol|
|  sn=11 | S(rot)=       0.01312709 Eh      8.24 kcal/mol|
|  sn=12 | S(rot)=       0.01304493 Eh      8.19 kcal/mol|
 linear molecules ---------------------------------------
|  Dinfh | S(rot)=       0.00971183 Eh      6.09 kcal/mol|
|  Cinfv | S(rot)=       0.01036628 Eh      6.50 kcal/mol|
 --------------------------------------------------------


-------------------
GIBBS FREE ENERGY
-------------------

The Gibbs free energy is G = H - T*S

Total enthalpy                    ...   -756.85139757 Eh 
Total entropy correction          ...     -0.04950913 Eh    -31.07 kcal/mol
-----------------------------------------------------------------------
Final Gibbs free energy         ...   -756.90090670 Eh

For completeness - the Gibbs free energy minus the electronic energy
G-E(el)                           ...      0.11778949 Eh     73.91 kcal/mol


Maximum memory used throughout the entire PROP-calculation: 90.4 MB

--------------------------------
SUGGESTED CITATIONS FOR THIS RUN
--------------------------------

Below you find a list of papers that are relevant to this ORCA run
We neither can nor want to force you to cite these papers, but we appreciate if you do
You receive ORCA, which is the product of decades of hard work by many enthusiastic individuals, for free
The only thing we kindly ask in return is that you cite our papers,
We deeply appreciate it, if you show your appreciation for ORCA by not just citing the generic ORCA reference.

Please note that relegating all ORCA citations to the supporting information does *not* help us.
SI sections are not indexed - citations you put there will not count into any citation statistics
But we need these citations in order to attract the funding resources that allow us to do what we are doing

Therefore, if you are a happy ORCA user, please consider citing a few of the papers listed below in the main body of your paper

In addition to the list printed below, the program has created the file CMR_GOLD_043_correct_opt_pal8.bibtex that contains the list in bibtex format
You can import this file easily into all common literature databanks and citation aid programs

It goes without saying that in many instances, there are alternative algorithms to achieve similar
results as the ones you have gotten from ORCA. It is, of course, also the case that in some instances
ORCA just re-implements algorithms worked out by others. We are fully aware of that and we are also
fully appreciative of our colleagues work. Hence this citation list should not be read as indicating
that the listed papers, which are focused on our own work, are the only ones worth citing. It simply
meant to make it easier for users to cite ORCA specific papers. It is not a substitute for doing your
own literature research and citing the relevant literature in a scientifically appropriate manner.

List of essential papers. We consider these as the minimum necessary citations

  1. Neese, F.
     Software update: the ORCA program system, version 6.0
     WIRES Comput. Molec. Sci. 2025 15(1), e70019
     doi.org/10.1002/wcms.70019

List of papers to cite with high priority. The work reported in these papers was absolutely
necessary for this run to complete.
Our perspective: the developers of density functionals and basis sets usually get cited in chemistry papers
Good! But without the algorithms to do something with them, the functionals or basis sets would not do anything.
Hence, in our opinion, the algorithm design and method developments papers are equally worthy of getting cited

  1. Neese, F.
     An improvement of the resolution of the identity approximation for the formation of the Coulomb matrix
     J. Comp. Chem. 2003 24(14), 1740-1747
     doi.org/10.1002/jcc.10318
  2. Neese, F.; Wennmohs, F.; Hansen, A.; Becker, U.
     Efficient, approximate and parallel Hartree-Fock and hybrid DFT calculations. A 'chain-of-spheres' algorithm for the Hartree-Fock exchange
     Chem. Phys. 2009 356(1-3), 98-109
     doi.org/10.1016/j.chemphys.2008.10.036
  3. Grimme, S.; Antony, J.; Ehrlich, S.; Krieg, H.
     A consistent and accurate ab initio parametrization of density functional dispersion correction (DFT-D) for the 94 elements H-Pu
     J. Chem. Phys. 2010 132 , 154104
     doi.org/10.1063/1.3382344
  4. Grimme, S.; Ehrlich, S.; Goerigk, L.
     Effect of the damping function in dispersion corrected density functional theory
     J. Comput. Chem. 2011 32(7), 1456-1465
     doi.org/10.1002/jcc.21759
  5. Bykov, D.; Petrenko, T.; Izsak, R.; Kossmann, S.; Becker, U.; Valeev, E.; Neese, F.
     Efficient implementation of the analytic second derivatives of Hartree-Fock and hybrid DFT energies: a detailed analysis of different approximations
     Molec. Phys. 2015 113 , 1961-1977
     doi.org/10.1080/00268976.2015.1025114
  6. Garcia-Rates, M.; Neese, F.
     Efficient implementation of the analytical second derivatives of hartree-fock and hybrid DFT energies within the framework of the conductor-like polarizable continuum model
     J. Comput. Chem. 2019 40 , 1816-1828
     doi.org/10.1002/jcc.25833
  7. Garcia-Rates, M.; Neese, F.
     Effect of the Solute Cavity on the Solvation Energy and its Derivatives within the Framework of the Gaussian Charge Scheme
     J. Comput. Chem. 2020 41 , 922-939
     doi.org/10.1002/jcc.26139
  8. Helmich-Paris, B.; de Souza, B.; Neese, F.; Izsák, R.
     An improved chain of spheres for exchange algorithm
     J. Chem. Phys. 2021 155(10), 104109
     doi.org/10.1063/5.0058766
  9. Neese, F.
     The SHARK Integral Generation and Digestion System
     J. Comp. Chem. 2022 44(3), 381
     doi.org/10.1002/jcc.26942

List of suggested additional citations. These are papers that are important in the 'surrounding' of 
of this run, or papers that preceded the highly important papers. If you like your results we are grateful for a citation.

  1. Izsak, R.; Neese, F.
     An overlap fitted chain of spheres exchange method
     J. Chem. Phys. 2011 135 , 144105
     doi.org/10.1063/1.3646921
  2. Izsak, R.; Hansen, A.; Neese, F.
     The resolution of identity and chain of spheres approximations for the LPNO-CCSD singles Fock term
     Molec. Phys. 2012 110 , 2413-2417
     doi.org/10.1080/00268976.2012.687466
  3. Neese, F.
     The ORCA program system
     WIRES Comput. Molec. Sci. 2012 2(1), 73-78
     doi.org/10.1002/wcms.81
  4. Izsak, R.; Neese, F.; Klopper, W.
     Robust fitting techniques in the chain of spheres approximation to the Fock exchange: The role of the complementary space
     J. Chem. Phys. 2013 139 , 
     doi.org/10.1063/1.4819264
  5. Neese, F.
     Software update: the ORCA program system, version 4.0
     WIRES Comput. Molec. Sci. 2018 8(1), 1-6
     doi.org/10.1002/wcms.1327
  6. Neese, F.; Wennmohs, F.; Becker, U.; Riplinger, C.
     The ORCA quantum chemistry program package
     J. Chem. Phys. 2020 152(22), 224108
     doi.org/10.1063/5.0004608
  7. Neese, F.
     Software update: The ORCA program system—Version 5.0
     WIRES Comput. Molec. Sci. 2022 12(1), e1606
     doi.org/10.1002/wcms.1606

List of optional additional citations

  1. Neese, F.
     Approximate second-order SCF convergence for spin unrestricted wavefunctions
     Chem. Phys. Lett. 2000 325(1-3), 93-98
     doi.org/10.1016/s0009-2614(00)00662-x

Timings for individual modules:

Sum of individual times          ...      355.957 sec (=   5.933 min)
Startup calculation              ...        9.626 sec (=   0.160 min)   2.7 %
SCF iterations                   ...      100.504 sec (=   1.675 min)  28.2 %
Property integrals               ...       37.984 sec (=   0.633 min)  10.7 %
SCF Response                     ...       70.922 sec (=   1.182 min)  19.9 %
Property calculations            ...       83.412 sec (=   1.390 min)  23.4 %
SCF Gradient evaluation          ...       53.372 sec (=   0.890 min)  15.0 %
Geometry relaxation              ...        0.137 sec (=   0.002 min)   0.0 %
                             ****ORCA TERMINATED NORMALLY****
TOTAL RUN TIME: 0 days 0 hours 5 minutes 58 seconds 529 msec
