
                                 *****************
                                 * O   R   C   A *
                                 *****************

                                            #,                                       
                                            ###                                      
                                            ####                                     
                                            #####                                    
                                            ######                                   
                                           ########,                                 
                                     ,,################,,,,,                         
                               ,,#################################,,                 
                          ,,##########################################,,             
                       ,#########################################, ''#####,          
                    ,#############################################,,   '####,        
                  ,##################################################,,,,####,       
                ,###########''''           ''''###############################       
              ,#####''   ,,,,##########,,,,          '''####'''          '####       
            ,##' ,,,,###########################,,,                        '##       
           ' ,,###''''                  '''############,,,                           
         ,,##''                                '''############,,,,        ,,,,,,###''
      ,#''                                            '''#######################'''  
     '                                                          ''''####''''         
             ,#######,   #######,   ,#######,      ##                                
            ,#'     '#,  ##    ##  ,#'     '#,    #''#        ,####,    ,#,          
            ##       ##  ##   ,#'  ##            #'  '#       #'       ,# #          
            ##       ##  #######   ##           ,######,      #####,      #          
            '#,     ,#'  ##    ##  '#,     ,#' ,#      #,     #,   #      #          
             '#######'   ##     ##  '#######'  #'      '#     '####' #    #          



                #########################################################
                #                        -***-                          #
                #          Department of theory and spectroscopy        #
                #                                                       #
                #                      Frank Neese                      #
                #                                                       #
                #     Directorship, Architecture, Infrastructure        #
                #                    SHARK, DRIVERS                     #
                #        Core code/Algorithms in most modules           #
                #                                                       #
                #        Max Planck Institute fuer Kohlenforschung      #
                #                Kaiser Wilhelm Platz 1                 #
                #                 D-45470 Muelheim/Ruhr                 #
                #                      Germany                          #
                #                                                       #
                #                  All rights reserved                  #
                #                        -***-                          #
                #########################################################


                         Program Version 6.1.1  -  RELEASE   -


 With contributions from (in alphabetic order):
[Max-Planck-Institut fuer Kohlenforschung]                               
  Daniel Aravena         : Magnetic Suceptibility                        
  Michael Atanasov       : Ab Initio Ligand Field Theory (pilot matlab implementation)
  Alexander A. Auer      : GIAO ZORA, VPT2 properties, NMR spectrum      
  Ute Becker             : All parallelization in ORCA, NUMFREQ, NUMCALC 
  Giovanni Bistoni       : ED, misc. LED, open-shell LED, HFLD           
  Dmytro Bykov           : pre 5.0 version of the SCF Hessian            
  Marcos Casanova-Páez   : Triplet and SCS-CIS(D). UHF-(DLPNO)-IP/EA/STEOM-CCSD. UHF-CVS-IP/STEOM-CCSD   
  Vijay G. Chilkuri      : MRCI spin determinant printing, contributions to CSF-ICE 
  Pauline Colinet        : FMM embedding                                 
  Dipayan Datta          : RHF DLPNO-CCSD density                        
  Achintya Kumar Dutta   : EOM-CC, STEOM-CC                              
  Nicolas Foglia         : Exact transition moments, OPA infrastructure, MCD improvements    
  Dmitry Ganyushin       : Spin-Orbit,Spin-Spin,Magnetic field MRCI      
  Miquel Garcia-Rates    : C-PCM and meta-GGA Hessian, CCSD/C-PCM, Gaussian charge scheme 
  Tiago L. C. Gouveia    : GS-ROHF, GS-ROCIS                             
  Yang Guo               : DLPNO-NEVPT2, F12-NEVPT2, CIM, IAO-localization        
  Andreas Hansen         : Spin unrestricted coupled pair/coupled cluster methods 
  Ingolf Harden          : AUTO-CI MPn and infrastructure                
  Benjamin Helmich-Paris : MC-RPA, TRAH-(SCF,CASSCF), AVAS, COSX integrals, SCF dyn. polar., MC-PDFT, srDFT 
  Lee Huntington         : MR-EOM, pCC                                   
  Robert Izsak           : Overlap fitted RIJCOSX, COSX-SCS-MP3, EOM     
  Riya Kayal             : Wick's Theorem for AUTO-CI, AUTO-CI UHF-CCSDT 
  Emily Kempfer          : AUTO-CI RHF CISDT and CCSDT, approximate NEVPT4
  Christian Kollmar      : KDIIS, OOCD, Brueckner-CCSD(T), CCSD density, CASPT2, CASPT2-K, improved NEVPT2 
  Axel Koslowski         : Symmetry handling                             
  Simone Kossmann        : meta-GGA functionals, TD-DFT gradient, OOMP2, (MP2 Hessian; deprecated post 5.0) 
  Lucas Lang             : DCDCAS, Hyperfine gauge corrections, ICE-SOC+SSC
  Marvin Lechner         : AUTO-CI (C++ implementation), FIC-MRCC        
  Spencer Leger          : CASSCF response                               
  Dagmar Lenk            : GEPOL surface, SMD, ORCA-2-JSON               
  Dimitrios Liakos       : Extrapolation schemes; Compound Job, Property file
  Dimitrios Manganas     : Further ROCIS development; embedding schemes. LFT, Crystal Embedding 
  Dimitrios Pantazis     : SARC Basis sets                               
  Anastasios Papadopoulos: AUTO-CI, single reference methods and gradients 
  Taras Petrenko         : pre 6.0 DFT Hessian and TD-DFT gradient,  ECA, NRVS 
  Petra Pikulova         : Analytic Raman intensities                    
  Peter Pinski           : DLPNO-MP2, DLPNO-MP2 Gradient                 
  Shashank Vittal Rao    : ES-AILFT, MagRelax                            
  Christoph Reimann      : Effective Core Potentials                     
  Marius Retegan         : Local ZFS, SOC                                
  Christoph Riplinger    : Optimizer, TS searches, QM/MM, DLPNO-CCSD(T), (RO)-DLPNO pert. Triples 
  Michael Roemelt        : Original ROCIS implementation, recursive CI coupling coefficients
  Masaaki Saitow         : Open-shell DLPNO-CCSD energy and density      
  Barbara Sandhoefer     : DKH picture change effects                    
  Yorick L. A. Schmerwitz: GMF and freeze-and-release deltaSCF, NEB S-IDPP initial path                    
  Kantharuban Sivalingam : CASSCF convergence/infrastructure, NEVPT2, NEVPT3, NEVPT4(SD), FIC-MRCI and CEPA variants
  Bernardo de Souza      : ESD, SOC TD-DFT                               
  Georgi L. Stoychev     : AutoAux, RI-MP2 NMR, DLPNO-MP2 response, X2C  
  Van Anh Tran           : RI-MP2 g-tensors                              
  Willem Van den Heuvel  : Paramagnetic NMR                              
  Zikuan Wang            : NOTCH, Electric field optimization            
  Frank Wennmohs         : Technical directorship and infrastructure     
  Hang Xu                : AUTO-CI-Response properties                   
                                                                         
[FACCTs GmbH]                                                            
  Markus Bursch, Nicolas Foglia, Miquel Garcia-Rates, Ingolf Harden, Hagen Neugebauer, Anastasios Papadopoulos, 
  Christoph Riplinger, Bernardo de Souza, Georgi L. Stoychev                                                    
                                                                 
  APM, various basis sets, CI-OPT, improved COSX, DLPNO-Multilevel,           
  DOCKER, DRACO, updates on ESD, Fragmentator, GOAT, IRC, LR-CPCM, L-BFGS, MBIS, meta-GGA TD-DFT gradient, ML-optimized integration grids, 
  MM, NACMEs, nearIR, NEB, NEB-TS, NL-DFT gradient (VV10), 2- and 3-layer-ONIOM, interface openCOSMO-RS, QMMM,   
  Crystal-QMMM, RESP, rigid body optimization, SF, symmetry and pop. for TD-DFT, various functionals, SOLVATOR                                   
                                                                         
[Other institutions]                                                     
  V. Asgeirsson          : NEB                                           
  Christoph Bannwarth    : sTDA-DFT, sTD-DFT, PBEh-3c, B97-3c, D3        
  Giovanni Bistoni       : ETS/NOCV, ADLD/ADEX, COVALED                  
  Martin Brehm           : Molecular dynamics                            
  Ronald Cardenas        : ETS/NOCV                                      
  Martina Colucci        : COVALED                                       
  Sebastian Ehlert       : rSCAN, r2SCAN, r2SCAN-3c, D4, dhf basis sets  
  Marvin Friede          : D4 for Fr, Ra, Ac-Lr                          
  Lars Goerigk           : TD-DFT with DH, B97 family of functionals     
  Stefan Grimme          : VdW corrections, initial TS optimization, DFT functionals, gCP, sTDA/sTD-DF 
  Waldemar Hujo          : DFT-NL                                        
  H. Jonsson             : NEB                                           
  Holger Kruse           : gCP                                           
  Marcel Mueller         : wB97X-3c, vDZP basis set                      
  Hagen Neugebauer       : wr2SCAN, Native XTB                           
  Gianluca Regni         : ADLD/ADEX                                     
  Tobias Risthaus        : pre 6.0 range-separated hybrid DFT and stability analysis
  Lukas Wittmann         : regularized MP2, r2SCAN double-hybrids, wr2SCAN        
                                                                         
We gratefully acknowledge several colleagues who have allowed us to      
interface, adapt or use parts of their codes:                            
  Ed Valeev, F. Pavosevic, A. Kumar             : LibInt (2-el integral package), F12 methods 
  Garnet Chan, S. Sharma, J. Yang, R. Olivares  : DMRG                   
  Ulf Ekstrom                                   : XCFun DFT Library      
  Mihaly Kallay                                 : mrcc  (arbitrary order and MRCC methods)
  Frank Weinhold                                : gennbo (NPA and NBO analysis)           
  Simon Mueller                                 : openCOSMO-RS                            
  Christopher J. Cramer and Donald G. Truhlar   : smd solvation model                     
  S Lehtola, MJT Oliveira, MAL Marques          : LibXC Library                           
  Liviu Ungur et al                             : ANISO software                          


 Your calculation uses the libint2 library for the computation of 2-el integrals
 For citations please refer to: http://libint.valeyev.net

 Your ORCA version has been built with support for libXC version: 7.0.0
 For citations please refer to: https://libxc.gitlab.io

 This ORCA versions uses:
   CBLAS   interface :  Fast vector & matrix operations
   LAPACKE interface :  Fast linear algebra routines
   Shared memory     :  Shared parallel matrices


  ***********************************
  * Starting time: Thu Apr 30 23:51:04 2026
  * Host name:     AHMET
  * Process ID:    16108
  * Working dir.:  C:\orca_tests\DFT_FINAL_PROPERTIES\043\02_sp_charge_correct
  ***********************************

NOTE: MaxCore=3000 MB was set to SCF,MP2,MDCI,CIPSI,MRCI,RASCI and CIS
      => If you want to overwrite this, your respective input block should be placed after the MaxCore statement


***************************************
The coordinates will be read from file: geom.xyz
***************************************


Your calculation utilizes the atom-pairwise dispersion correction
with the Becke-Johnson damping scheme (D3BJ)


================================================================================

----- Orbital basis set information -----
Your calculation utilizes the basis: def2-SVP
   F. Weigend and R. Ahlrichs, Phys. Chem. Chem. Phys. 7, 3297 (2005).

----- AuxJ basis set information -----
Your calculation utilizes the auxiliary basis: def2/J
   H-Rn: F. Weigend, Phys. Chem. Chem. Phys. 8, 1057 (2006).
   Fr-Lr: K. Eichkorn, F. Weigend, O. Treutler, R. Ahlrichs; Theor. Chem. Acc. 97, 119 (1997).

================================================================================
                                        WARNINGS
                       Please study these warnings very carefully!
================================================================================


WARNING: MOInp is set but Guess=PModel. MOInp will be ignored!
         To read the initial guess from a file you must also specify
         'MORead' in the simple input or 'Guess MORead' in the %scf block


================================================================================
                                       INPUT FILE
================================================================================
NAME = CMR_GOLD_043_sp_charge_clean.inp
|  1> ! B3LYP D3BJ def2-SVP CPCM(Water) TightSCF RIJCOSX def2/J SP KeepDens
|  2> 
|  3> %maxcore 3000
|  4> 
|  5> %pal
|  6>   nprocs 8
|  7> end
|  8> 
|  9> %moinp "geom.gbw"
| 10> 
| 11> %output
| 12>   Print[P_Mulliken] 1
| 13>   Print[P_Loewdin] 1
| 14> end
| 15> 
| 16> * xyzfile 0 1 geom.xyz
| 17> 
| 18>                          ****END OF INPUT****
================================================================================

                       ****************************
                       * Single Point Calculation *
                       ****************************

---------------------------------
CARTESIAN COORDINATES (ANGSTROEM)
---------------------------------
  O     -1.196516    3.731771   -0.639927
  C     -0.933608    2.567829   -0.434232
  O     -1.973616    1.699119   -0.214125
  C     -1.797599    0.368446    0.028323
  C     -2.958786   -0.382584    0.232625
  C     -2.852148   -1.746713    0.484890
  C     -1.589189   -2.358142    0.532936
  C     -0.437483   -1.606833    0.329372
  C     -0.511940   -0.219477    0.071095
  C      0.623523    0.666879   -0.158115
  C      0.400053    1.990836   -0.397072
  C      2.032243    0.222604   -0.151070
  N      2.441169   -1.007506    0.069910
  O      3.817786   -0.928959   -0.025672
  C      4.116942    0.346464   -0.295688
  N      3.071876    1.103430   -0.386111
  H     -3.925355    0.122434    0.188792
  H     -3.756344   -2.338628    0.645208
  H     -1.506911   -3.429022    0.730804
  H      0.538833   -2.084455    0.367969
  H      1.226221    2.678041   -0.572222
  H      5.170847    0.604466   -0.407690

----------------------------
CARTESIAN COORDINATES (A.U.)
----------------------------
  NO LB      ZA    FRAG     MASS         X           Y           Z
   0 O     8.0000    0    15.999   -2.261088    7.052025   -1.209287
   1 C     6.0000    0    12.011   -1.764263    4.852493   -0.820579
   2 O     8.0000    0    15.999   -3.729594    3.210870   -0.404637
   3 C     6.0000    0    12.011   -3.396969    0.696263    0.053523
   4 C     6.0000    0    12.011   -5.591294   -0.722978    0.439598
   5 C     6.0000    0    12.011   -5.389780   -3.300810    0.916309
   6 C     6.0000    0    12.011   -3.003133   -4.456242    1.007102
   7 C     6.0000    0    12.011   -0.826723   -3.036474    0.622423
   8 C     6.0000    0    12.011   -0.967426   -0.414752    0.134351
   9 C     6.0000    0    12.011    1.178288    1.260219   -0.298794
  10 C     6.0000    0    12.011    0.755991    3.762134   -0.750357
  11 C     6.0000    0    12.011    3.840383    0.420661   -0.285482
  12 N     7.0000    0    14.007    4.613142   -1.903910    0.132111
  13 O     8.0000    0    15.999    7.214571   -1.755478   -0.048513
  14 C     6.0000    0    12.011    7.779892    0.654722   -0.558770
  15 N     7.0000    0    14.007    5.805005    2.085180   -0.729645
  16 H     1.0000    0     1.008   -7.417846    0.231367    0.356766
  17 H     1.0000    0     1.008   -7.098461   -4.419366    1.219266
  18 H     1.0000    0     1.008   -2.847649   -6.479912    1.381019
  19 H     1.0000    0     1.008    1.018247   -3.939049    0.695361
  20 H     1.0000    0     1.008    2.317223    5.060764   -1.081344
  21 H     1.0000    0     1.008    9.771485    1.142274   -0.770422

--------------------------------
INTERNAL COORDINATES (ANGSTROEM)
--------------------------------
 O      0   0   0     0.000000000000     0.00000000     0.00000000
 C      1   0   0     1.210864099022     0.00000000     0.00000000
 O      2   1   0     1.372851466541   118.09980519     0.00000000
 C      3   2   1     1.363984332183   123.23419869   180.02850589
 C      4   3   2     1.397905588511   116.29013471   180.00076980
 C      5   4   3     1.391351551433   119.31273513   179.98938072
 C      6   5   4     1.404000999776   120.14019711     0.00000000
 C      7   6   5     1.390082790121   120.32485314     0.00000000
 C      8   7   6     1.413154908187   120.91205451     0.00000000
 C      9   8   7     1.458574887936   125.75335512   180.04686832
 C     10   9   8     1.363781379394   119.33495847   179.96433398
 C     10   9   8     1.477133038682   123.97953925     0.02328641
 N     12  10   9     1.314999370078   125.36070914   359.41827186
 O     13  12  10     1.382165011895   104.17836265   179.97786071
 C     14  13  12     1.337574910762   106.91217328     0.04846038
 N     15  14  13     1.293574785714   113.04197345   359.94155671
 H      5   4   3     1.091430721097   118.76185434     0.00000000
 H      6   5   4     1.092535553162   119.62725098   180.00663217
 H      7   6   5     1.092110524507   120.06581865   180.01445890
 H      8   7   6     1.087569006438   120.07992825   179.96906500
 H     11  10   9     1.088798851613   121.10304453   180.02163829
 H     15  14  13     1.090791504418   117.53924939   179.97876284

---------------------------
INTERNAL COORDINATES (A.U.)
---------------------------
 O      0   0   0     0.000000000000     0.00000000     0.00000000
 C      1   0   0     2.288201532549     0.00000000     0.00000000
 O      2   1   0     2.594313294315   118.09980519     0.00000000
 C      3   2   1     2.577556838786   123.23419869   180.02850589
 C      4   3   2     2.641658723363   116.29013471   180.00076980
 C      5   4   3     2.629273388215   119.31273513   179.98938072
 C      6   5   4     2.653177381328   120.14019711     0.00000000
 C      7   6   5     2.626875776806   120.32485314     0.00000000
 C      8   7   6     2.670475761280   120.91205451     0.00000000
 C      9   8   7     2.756307084014   125.75335512   180.04686832
 C     10   9   8     2.577173313597   119.33495847   179.96433398
 C     10   9   8     2.791376906476   123.97953925     0.02328641
 N     12  10   9     2.484988675726   125.36070914   359.41827186
 O     13  12  10     2.611913344369   104.17836265   179.97786071
 C     14  13  12     2.527650264944   106.91217328     0.04846038
 N     15  14  13     2.444502078746   113.04197345   359.94155671
 H      5   4   3     2.062505157022   118.76185434     0.00000000
 H      6   5   4     2.064592987048   119.62725098   180.00663217
 H      7   6   5     2.063789799291   120.06581865   180.01445890
 H      8   7   6     2.055207573908   120.07992825   179.96906500
 H     11  10   9     2.057531644476   121.10304453   180.02163829
 H     15  14  13     2.061297212558   117.53924939   179.97876284

---------------------
BASIS SET INFORMATION
---------------------
There are 4 groups of distinct atoms

 Group   1 Type O   : 7s4p1d contracted to 3s2p1d pattern {511/31/1}
 Group   2 Type C   : 7s4p1d contracted to 3s2p1d pattern {511/31/1}
 Group   3 Type N   : 7s4p1d contracted to 3s2p1d pattern {511/31/1}
 Group   4 Type H   : 4s1p contracted to 2s1p pattern {31/1}

Atom   0O    basis set group =>   1
Atom   1C    basis set group =>   2
Atom   2O    basis set group =>   1
Atom   3C    basis set group =>   2
Atom   4C    basis set group =>   2
Atom   5C    basis set group =>   2
Atom   6C    basis set group =>   2
Atom   7C    basis set group =>   2
Atom   8C    basis set group =>   2
Atom   9C    basis set group =>   2
Atom  10C    basis set group =>   2
Atom  11C    basis set group =>   2
Atom  12N    basis set group =>   3
Atom  13O    basis set group =>   1
Atom  14C    basis set group =>   2
Atom  15N    basis set group =>   3
Atom  16H    basis set group =>   4
Atom  17H    basis set group =>   4
Atom  18H    basis set group =>   4
Atom  19H    basis set group =>   4
Atom  20H    basis set group =>   4
Atom  21H    basis set group =>   4
---------------------------------
AUXILIARY/J BASIS SET INFORMATION
---------------------------------
There are 4 groups of distinct atoms

 Group   1 Type O   : 12s5p4d2f1g contracted to 6s4p3d1f1g pattern {711111/2111/211/2/1}
 Group   2 Type C   : 12s5p4d2f1g contracted to 6s4p3d1f1g pattern {711111/2111/211/2/1}
 Group   3 Type N   : 12s5p4d2f1g contracted to 6s4p3d1f1g pattern {711111/2111/211/2/1}
 Group   4 Type H   : 5s2p1d contracted to 3s1p1d pattern {311/2/1}

Atom   0O    basis set group =>   1
Atom   1C    basis set group =>   2
Atom   2O    basis set group =>   1
Atom   3C    basis set group =>   2
Atom   4C    basis set group =>   2
Atom   5C    basis set group =>   2
Atom   6C    basis set group =>   2
Atom   7C    basis set group =>   2
Atom   8C    basis set group =>   2
Atom   9C    basis set group =>   2
Atom  10C    basis set group =>   2
Atom  11C    basis set group =>   2
Atom  12N    basis set group =>   3
Atom  13O    basis set group =>   1
Atom  14C    basis set group =>   2
Atom  15N    basis set group =>   3
Atom  16H    basis set group =>   4
Atom  17H    basis set group =>   4
Atom  18H    basis set group =>   4
Atom  19H    basis set group =>   4
Atom  20H    basis set group =>   4
Atom  21H    basis set group =>   4


           ************************************************************
           *        Program running with 8 parallel MPI-processes     *
           *              working on a common directory               *
           ************************************************************
------------------------------------------------------------------------------
                             ORCA STARTUP CALCULATIONS
                           -- RI-GTO INTEGRALS CHOSEN --
------------------------------------------------------------------------------
------------------------------------------------------------------------------
                   ___                                                        
                  /   \      - P O W E R E D   B Y -                         
                 /     \                                                     
                 |  |  |   _    _      __       _____    __    __             
                 |  |  |  | |  | |    /  \     |  _  \  |  |  /  |          
                  \  \/   | |  | |   /    \    | | | |  |  | /  /          
                 / \  \   | |__| |  /  /\  \   | |_| |  |  |/  /          
                |  |  |   |  __  | /  /__\  \  |    /   |      \           
                |  |  |   | |  | | |   __   |  |    \   |  |\   \          
                \     /   | |  | | |  |  |  |  | |\  \  |  | \   \       
                 \___/    |_|  |_| |__|  |__|  |_| \__\ |__|  \__/        
                                                                              
                      - O R C A' S   B I G   F R I E N D -                    
                                      &                                       
                       - I N T E G R A L  F E E D E R -                       
                                                                              
 v1 FN, 2020, v2 2021, v3 2022-2024                                           
------------------------------------------------------------------------------


----------------------
SHARK INTEGRAL PACKAGE
----------------------

Number of atoms                             ...     22
Number of basis functions                   ...    254
Number of shells                            ...    114
Maximum angular momentum                    ...      2
Integral batch strategy                     ... SHARK/LIBINT Hybrid
RI-J (if used) integral strategy            ... SPLIT-RIJ (Revised 2003 algorithm where possible)
Printlevel                                  ...      1
Contraction scheme used                     ... SEGMENTED contraction
Prescreening option                         ... SCHWARTZ
   Thresh                                   ... 2.500e-11
   Tcut                                     ... 2.500e-12
   Tpresel                                  ... 2.500e-12 
Coulomb Range Separation                    ... NOT USED
Exchange Range Separation                   ... NOT USED
Multipole approximations                    ... NOT USED
Finite Nucleus Model                        ... NOT USED
CABS basis                                  ... NOT available
Auxiliary Coulomb fitting basis             ... AVAILABLE
   # of basis functions in Aux-J            ...    850
   # of shells in Aux-J                     ...    270
   Maximum angular momentum in Aux-J        ...      4
Auxiliary J/K fitting basis                 ... NOT available
Auxiliary Correlation fitting basis         ... NOT available
Auxiliary 'external' fitting basis          ... NOT available

Checking pre-screening integrals            ... done (  0.0 sec) Dimension = 114
   => SHARK Basis and OBASIS are compatible. Storing Pre-screening
Shell pair information
Shell pair cut-off parameter TPreSel        ...   2.5e-12
Total number of shell pairs                 ...      6555
Shell pairs after pre-screening             ...      5399
Total number of primitive shell pairs       ...     24979
Primitive shell pairs kept                  ...     13727
          la=0 lb=0:   1488 shell pairs
          la=1 lb=0:   1926 shell pairs
          la=1 lb=1:    650 shell pairs
          la=2 lb=0:    737 shell pairs
          la=2 lb=1:    500 shell pairs
          la=2 lb=2:     98 shell pairs

Checking whether 4 symmetric matrices of dimension 254 fit in memory
:Max Core in MB      =   3000.00
 MB in use           =      8.88
 MB left             =   2991.12
 MB needed           =      0.99
 Data fit in memory  = YES
Calculating RI/J V-Matrix + Cholesky decomp.... done (  0.0 sec)
Calculating Nuclear repulsion               ... done (  0.0 sec) ENN=   1006.096305842924 Eh

Diagonalization of the overlap matrix:
Smallest eigenvalue                        ... 2.478e-04
Time for diagonalization                   ...    0.004 sec
Threshold for overlap eigenvalues          ... 1.000e-07
Number of eigenvalues below threshold      ... 0
Time for construction of square roots      ...    0.004 sec
Total time needed                          ...    0.009 sec

-------------------
DFT GRID GENERATION
-------------------

General Integration Accuracy     IntAcc      ... 4.388
Radial Grid Type                 RadialGrid  ... OptM3 with GC (2021)
Angular Grid (max. ang.)         AngularGrid ... 4 (Lebedev-302)
Angular grid pruning method      GridPruning ... 4 (adaptive)
Weight generation scheme         WeightScheme... mBecke (2022)
Basis function cutoff            BFCut       ... 1.0000e-11
Integration weight cutoff        WCut        ... 1.0000e-14
Partially contracted basis set               ... off
Rotationally invariant grid construction     ... off
Angular grids for H and He will be reduced by one unit

Total number of grid points                  ...   115400
Total number of batches                      ...     1814
Average number of points per batch           ...       63
Average number of grid points per atom       ...     5245

--------------------
COSX GRID GENERATION
--------------------

GRIDX 1
-------
General Integration Accuracy     IntAcc      ... 3.816
Radial Grid Type                 RadialGrid  ... OptM3 with GC (2021)
Angular Grid (max. ang.)         AngularGrid ... 1 (Lebedev-50)
Angular grid pruning method      GridPruning ... 4 (adaptive)
Weight generation scheme         WeightScheme... mBecke (2022)
Basis function cutoff            BFCut       ... 1.0000e-11
Integration weight cutoff        WCut        ... 1.0000e-14
Partially contracted basis set               ... on
Rotationally invariant grid construction     ... off
Angular grids for H and He will be reduced by one unit

Total number of grid points                  ...    14651
Total number of batches                      ...      126
Average number of points per batch           ...      116
Average number of grid points per atom       ...      666
UseSFitting                                  ... on

GRIDX 2
-------
General Integration Accuracy     IntAcc      ... 4.020
Radial Grid Type                 RadialGrid  ... OptM3 with GC (2021)
Angular Grid (max. ang.)         AngularGrid ... 2 (Lebedev-110)
Angular grid pruning method      GridPruning ... 4 (adaptive)
Weight generation scheme         WeightScheme... mBecke (2022)
Basis function cutoff            BFCut       ... 1.0000e-11
Integration weight cutoff        WCut        ... 1.0000e-14
Partially contracted basis set               ... on
Rotationally invariant grid construction     ... off
Angular grids for H and He will be reduced by one unit

Total number of grid points                  ...    33074
Total number of batches                      ...      269
Average number of points per batch           ...      122
Average number of grid points per atom       ...     1503
UseSFitting                                  ... on

GRIDX 3
-------
General Integration Accuracy     IntAcc      ... 4.338
Radial Grid Type                 RadialGrid  ... OptM3 with GC (2021)
Angular Grid (max. ang.)         AngularGrid ... 3 (Lebedev-194)
Angular grid pruning method      GridPruning ... 4 (adaptive)
Weight generation scheme         WeightScheme... mBecke (2022)
Basis function cutoff            BFCut       ... 1.0000e-11
Integration weight cutoff        WCut        ... 1.0000e-14
Partially contracted basis set               ... on
Rotationally invariant grid construction     ... off
Angular grids for H and He will be reduced by one unit

Total number of grid points                  ...    72895
Total number of batches                      ...      581
Average number of points per batch           ...      125
Average number of grid points per atom       ...     3313
UseSFitting                                  ... on
Grids setup in   0.8 sec
Initializing property integral containers    ... done (  0.0 sec)

SHARK setup successfully completed in   1.0 seconds

Maximum memory used throughout the entire STARTUP-calculation: 29.0 MB


           ************************************************************
           *        Program running with 8 parallel MPI-processes     *
           *              working on a common directory               *
           ************************************************************
-------------------------------------------------------------------------------
                                 ORCA GUESS
                   Start orbitals & Density for SCF / CASSCF
-------------------------------------------------------------------------------

------------
SCF SETTINGS
------------
Hamiltonian:
 Density Functional     Method          .... DFT(GTOs)
 Exchange Functional    Exchange        .... B88
   X-Alpha parameter    XAlpha          ....  0.666667
   Becke's b parameter  XBeta           ....  0.004200
 Correlation Functional Correlation     .... LYP
 LDA part of GGA corr.  LDAOpt          .... VWN-5
 Gradients option       PostSCFGGA      .... off
 Hybrid DFT is turned on
   Fraction HF Exchange ScalHFX         ....  0.200000
   Scaling of DF-GGA-X  ScalDFX         ....  0.720000
   Scaling of DF-GGA-C  ScalDFC         ....  0.810000
   Scaling of DF-LDA-C  ScalLDAC        ....  1.000000
   Perturbative correction              ....  0.000000
   NL short-range parameter             ....  4.800000
 RI-approximation to the Coulomb term is turned on
   Number of AuxJ basis functions       .... 850
   RIJ-COSX (HFX calculated with COS-X)).... on


General Settings:
 Integral files         IntName         .... CMR_GOLD_043_sp_charge_clean
 Hartree-Fock type      HFTyp           .... RHF
 Total Charge           Charge          ....    0
 Multiplicity           Mult            ....    1
 Number of Electrons    NEL             ....  110
 Basis Dimension        Dim             ....  254
 Nuclear Repulsion      ENuc            ....   1006.0963058429 Eh

Convergence Acceleration:
 AO-DIIS                CNVDIIS         .... on
   Start iteration      DIISMaxIt       ....    12
   Startup error        DIISStart       ....  0.200000
   # of expansion vecs  DIISMaxEq       ....     5
   Bias factor          DIISBfac        ....   1.050
   Max. coefficient     DIISMaxC        ....  10.000
 MO-DIIS                CNVKDIIS        .... off
 Trust-Rad. Augm. Hess. CNVTRAH         .... auto
   Auto Start mean grad. ratio tolernc. ....  1.125000
   Auto Start start iteration           ....    50
   Auto Start num. interpolation iter.  ....    10
   Max. Number of Micro iterations      ....    24
   Max. Number of Macro iterations      .... Maxiter - #DIIS iter
   Number of Davidson start vectors     ....     2
   Converg. threshold    (grad. norm)   ....   1.000e-05
   Grad. Scal. Fac. for Micro threshold ....   0.100
   Minimum threshold for Micro iter.    ....   1.000e-02
   NR start threshold (gradient norm)   ....   1.000e-04
   Initial trust radius                 ....   0.400
   Minimum AH scaling param. (alpha)    ....   1.000
   Maximum AH scaling param. (alpha)    .... 1000.000
   Quad. conv. algorithm                .... NR
   White noise on init. David. guess    .... on
   Maximum white noise                  ....   0.010
   Pseudo random numbers                .... off
   Inactive MOs                         .... canonical
   Orbital update algorithm             .... Taylor
   Preconditioner                       .... Diag
   Full preconditioner red. dimension   ....   250
 SOSCF                 CNVSOSCF           .... on
   Start iteration     SOSCFMaxIt         ....   150
   Startup grad/error  SOSCFStart         ....  0.003300
   Hessian update      SOSCFHessUp        .... L-BFGS
   Autom. constraints  SOSCFAutoConstrain .... off
 Level Shifting         CNVShift        .... on
   Level shift para.    LevelShift      ....    0.2500
   Turn off err/grad.   ShiftErr        ....    0.0010
 Zerner damping         CNVZerner       .... off
 Static damping         CNVDamp         .... on
   Fraction old density DampFac         ....    0.7000
   Max. Damping (<1)    DampMax         ....    0.9800
   Min. Damping (>=0)   DampMin         ....    0.0000
   Turn off err/grad.   DampErr         ....    0.1000

SCF Procedure:
 Maximum # iterations   MaxIter         ....   125
 SCF integral mode      SCFMode         .... Direct
   Integral package                     .... SHARK and LIBINT hybrid scheme
 Reset frequency        DirectResetFreq ....    20
 Integral Threshold     Thresh          ....  2.500e-11 Eh
 Primitive CutOff       TCut            ....  2.500e-12 Eh

Convergence Tolerance:
 Convergence Check Mode ConvCheckMode   .... Total+1el-Energy
 Convergence forced     ConvForced      .... 0
 Energy Change          TolE            ....  1.000e-08 Eh
 1-El. energy change                    ....  1.000e-05 Eh
 Orbital Gradient       TolG            ....  1.000e-05
 Orbital Rotation angle TolX            ....  1.000e-05
 DIIS Error             TolErr          ....  5.000e-07

------------------------------
INITIAL GUESS: MODEL POTENTIAL
------------------------------
Loading Hartree-Fock densities                     ... done
Calculating cut-offs                               ... done
Initializing the effective Hamiltonian             ... done
Setting up the integral package (SHARK)            ... done
Starting the Coulomb interaction                   ... done (   0.0 sec)
Making the grid                                    ... done (   0.1 sec)
Mapping shells                                     ... done
Starting the XC term evaluation                    ... done (   0.0 sec)
  promolecular density results
     # of electrons  =    109.996871619
     EX              =    -96.082473178
     EC              =     -3.842922384
     EX+EC           =    -99.925395562
Transforming the Hamiltonian                       ... done (   0.0 sec)
Diagonalizing the Hamiltonian                      ... done (   0.0 sec)
Back transforming the eigenvectors                 ... done (   0.0 sec)
Now organizing SCF variables                       ... done
                      ------------------
                      INITIAL GUESS DONE (   0.2 sec)
                      ------------------
             **** ENERGY FILE WAS UPDATED (CMR_GOLD_043_sp_charge_clean.en.tmp) ****
Finished Guess after   0.3 sec
Maximum memory used throughout the entire GUESS-calculation: 12.3 MB


           ************************************************************
           *        Program running with 8 parallel MPI-processes     *
           *              working on a common directory               *
           ************************************************************

-------------------------------------------------------------------------------------------
                                      ORCA LEAN-SCF
                              memory conserving SCF solver
-------------------------------------------------------------------------------------------

--------------------
CPCM SOLVATION MODEL
--------------------
CPCM parameters:
  Epsilon                                         ...      80.1510
  Refrac                                          ...       1.3328
  Rsolv                                           ...       1.3000
  Surface type                                    ... GAUSSIAN VDW
  Discretization scheme                           ... Constant charge density
    Threshold for H atoms                         ...       5.0000 (charges/Ang^2)
    Threshold for non-H atoms                     ...       5.0000 (charges/Ang^2)
  Epsilon function type                           ...         CPCM
Solvent:                                          ... WATER
Radii:
  Scheme                                          ... Element-dependent radii
  Radius for O  used is    3.4469 Bohr (=   1.8240 Ang.)
  Radius for C  used is    3.8550 Bohr (=   2.0400 Ang.)
  Radius for N  used is    3.5149 Bohr (=   1.8600 Ang.)
  Radius for H  used is    2.4944 Bohr (=   1.3200 Ang.)
Calculating surface                               ...        done! (  0.0s)
Cavity surface points                             ...         2142
Cavity Volume                                     ...    1569.9376
Cavity Surface-area                               ...     815.4509
Calculating surface distance matrix               ...        done! (  0.0s)
Performing Cholesky decomposition & store         ...        done! (  0.1s)
Overall time for CPCM initialization              ...                 0.1s

----------------------------------------D-I-I-S--------------------------------------------
Iteration    Energy (Eh)           Delta-E    RMSDP     MaxDP     DIISErr   Damp  Time(sec)
-------------------------------------------------------------------------------------------
               ***  Starting incremental Fock matrix formation  ***
    1    -756.6616999959871919     0.00e+00  9.33e-03  1.22e-01  2.75e-01  0.700   1.0
    2    -756.8065323818427714    -1.45e-01  6.07e-03  7.85e-02  1.06e-01  0.700   0.6
                               ***Turning on AO-DIIS***
    3    -756.8604678617227819    -5.39e-02  2.65e-03  1.68e-02  3.59e-02  0.700   0.6
    4    -756.8944917412468385    -3.40e-02  4.93e-03  3.49e-02  1.80e-02  0.000   0.6
    5    -756.9698756534558015    -7.54e-02  7.49e-04  7.19e-03  4.78e-03  0.000   0.9
                              *** Initializing SOSCF ***
---------------------------------------S-O-S-C-F--------------------------------------
Iteration    Energy (Eh)           Delta-E    RMSDP     MaxDP     MaxGrad    Time(sec)
--------------------------------------------------------------------------------------
    6    -756.9702832718210175    -4.08e-04  2.59e-04  2.28e-03  2.42e-03     0.8
               *** Restarting incremental Fock matrix formation ***
    7    -756.9702816211718073     1.65e-06  2.29e-04  3.36e-03  3.81e-04     1.3
    8    -756.9702661450053256     1.55e-05  1.38e-04  2.56e-03  9.11e-04     1.1
    9    -756.9702906951554269    -2.46e-05  3.33e-05  3.13e-04  6.35e-05     0.9
   10    -756.9702903904797040     3.05e-07  2.02e-05  1.89e-04  9.46e-05     1.0
   11    -756.9702909372938393    -5.47e-07  5.87e-06  8.28e-05  1.51e-05     0.9
   12    -756.9702909457532769    -8.46e-09  3.26e-06  5.19e-05  1.83e-05     0.9
                 **** Energy Check signals convergence ****

               *****************************************************
               *                     SUCCESS                       *
               *           SCF CONVERGED AFTER  12 CYCLES          *
               *****************************************************

Recomputing exchange energy using gridx3       ... done (    1.971 sec)
Old exchange energy                            :    -19.369002351 Eh
New exchange energy                            :    -19.369058098 Eh
Exchange energy change after final integration :     -0.000055747 Eh
Total energy after final integration           :   -756.970346693 Eh
             **** ENERGY FILE WAS UPDATED (CMR_GOLD_043_sp_charge_clean.en.tmp) ****

----------------
TOTAL SCF ENERGY
----------------

Total Energy       :       -756.97034669257414 Eh          -20598.21033 eV

Components:
Nuclear Repulsion  :       1006.09630584292381 Eh           27377.27232 eV
Electronic Energy  :      -1763.04864656671680 Eh          -47974.99267 eV
One Electron Energy:      -3025.67532273337611 Eh          -82332.81125 eV
Two Electron Energy:       1262.62667616665931 Eh           34357.81858 eV
CPCM Dielectric    :         -0.01795022152098 Eh              -0.48845 eV

Virial components:
Potential Energy   :      -1507.37568720960394 Eh          -41017.77775 eV
Kinetic Energy     :        750.40534051702980 Eh           20419.56743 eV
Virial Ratio       :          2.00874861334412

DFT components:
N(Alpha)           :       55.000019806494 electrons
N(Beta)            :       55.000019806494 electrons
N(Total)           :      110.000039612987 electrons
E(X)               :      -77.099706566434 Eh       
E(C)               :       -4.513567182150 Eh       
E(XC)              :      -81.613273748584 Eh       

CPCM Solvation Model Properties:
Surface-charge          :         -0.01615386016758
Corrected charge        :          0.00000000000000
Outlying charge corr.   :          0.00001629686303 Eh               0.00044 eV
Free-energy (cav+disp)  :  This term is not implemented in the current solvation scheme

---------------
SCF CONVERGENCE
---------------

  Last Energy change         ...    8.4594e-09  Tolerance :   1.0000e-08
  Last MAX-Density change    ...    5.1859e-05  Tolerance :   1.0000e-07
  Last RMS-Density change    ...    3.2567e-06  Tolerance :   5.0000e-09
  Last DIIS Error            ...    2.4222e-03  Tolerance :   5.0000e-07
  Last Orbital Gradient      ...    1.8287e-05  Tolerance :   1.0000e-05
  Last Orbital Rotation      ...    2.1319e-05  Tolerance :   1.0000e-05


----------------
ORBITAL ENERGIES
----------------

  NO   OCC          E(Eh)            E(eV) 
   0   2.0000     -19.252987      -523.9004 
   1   2.0000     -19.207142      -522.6529 
   2   2.0000     -19.126879      -520.4688 
   3   2.0000     -14.401320      -391.8798 
   4   2.0000     -14.353146      -390.5690 
   5   2.0000     -10.329123      -281.0697 
   6   2.0000     -10.304938      -280.4116 
   7   2.0000     -10.280949      -279.7589 
   8   2.0000     -10.273006      -279.5427 
   9   2.0000     -10.248957      -278.8883 
  10   2.0000     -10.221749      -278.1479 
  11   2.0000     -10.216848      -278.0146 
  12   2.0000     -10.205106      -277.6951 
  13   2.0000     -10.202735      -277.6305 
  14   2.0000     -10.201175      -277.5881 
  15   2.0000     -10.196984      -277.4740 
  16   2.0000      -1.185738       -32.2656 
  17   2.0000      -1.119276       -30.4570 
  18   2.0000      -1.027015       -27.9465 
  19   2.0000      -0.954610       -25.9763 
  20   2.0000      -0.890745       -24.2384 
  21   2.0000      -0.866120       -23.5683 
  22   2.0000      -0.830852       -22.6086 
  23   2.0000      -0.761964       -20.7341 
  24   2.0000      -0.753186       -20.4952 
  25   2.0000      -0.698385       -19.0040 
  26   2.0000      -0.669993       -18.2314 
  27   2.0000      -0.654297       -17.8043 
  28   2.0000      -0.632650       -17.2153 
  29   2.0000      -0.610412       -16.6102 
  30   2.0000      -0.566758       -15.4223 
  31   2.0000      -0.546588       -14.8734 
  32   2.0000      -0.526495       -14.3267 
  33   2.0000      -0.516817       -14.0633 
  34   2.0000      -0.503926       -13.7125 
  35   2.0000      -0.487680       -13.2704 
  36   2.0000      -0.478688       -13.0258 
  37   2.0000      -0.460275       -12.5247 
  38   2.0000      -0.453312       -12.3352 
  39   2.0000      -0.447102       -12.1663 
  40   2.0000      -0.442883       -12.0515 
  41   2.0000      -0.427412       -11.6305 
  42   2.0000      -0.400565       -10.8999 
  43   2.0000      -0.395607       -10.7650 
  44   2.0000      -0.386012       -10.5039 
  45   2.0000      -0.375202       -10.2098 
  46   2.0000      -0.362502        -9.8642 
  47   2.0000      -0.350151        -9.5281 
  48   2.0000      -0.345599        -9.4042 
  49   2.0000      -0.332058        -9.0358 
  50   2.0000      -0.317297        -8.6341 
  51   2.0000      -0.302001        -8.2179 
  52   2.0000      -0.293573        -7.9885 
  53   2.0000      -0.260520        -7.0891 
  54   2.0000      -0.246370        -6.7041 
  55   0.0000      -0.095121        -2.5884 
  56   0.0000      -0.039203        -1.0668 
  57   0.0000      -0.018249        -0.4966 
  58   0.0000      -0.010911        -0.2969 
  59   0.0000       0.040000         1.0885 
  60   0.0000       0.073158         1.9907 
  61   0.0000       0.083534         2.2731 
  62   0.0000       0.091726         2.4960 
  63   0.0000       0.109711         2.9854 
  64   0.0000       0.115180         3.1342 
  65   0.0000       0.119108         3.2411 
*Only the first 10 virtual orbitals were printed.

                    ********************************
                    * MULLIKEN POPULATION ANALYSIS *
                    ********************************

-----------------------
MULLIKEN ATOMIC CHARGES
-----------------------
   0 O :   -0.238272
   1 C :    0.241407
   2 O :   -0.235932
   3 C :    0.156283
   4 C :   -0.034209
   5 C :    0.028156
   6 C :    0.021038
   7 C :   -0.028707
   8 C :    0.017043
   9 C :    0.220524
  10 C :   -0.172264
  11 C :   -0.031674
  12 N :   -0.019061
  13 O :   -0.163972
  14 C :    0.254402
  15 N :   -0.176275
  16 H :    0.007117
  17 H :    0.021720
  18 H :    0.012090
  19 H :   -0.000787
  20 H :    0.029744
  21 H :    0.091630
Sum of atomic charges:    0.0000000

--------------------------------
MULLIKEN REDUCED ORBITAL CHARGES
--------------------------------
  0 O s       :     3.702343  s :     3.702343
      pz      :     1.425419  p :     4.518137
      px      :     1.742546
      py      :     1.350171
      dz2     :     0.002155  d :     0.017792
      dxz     :     0.000410
      dyz     :     0.005342
      dx2y2   :     0.005790
      dxy     :     0.004095

  1 C s       :     3.009830  s :     3.009830
      pz      :     0.846263  p :     2.619782
      px      :     0.903831
      py      :     0.869688
      dz2     :     0.008885  d :     0.128981
      dxz     :     0.010596
      dyz     :     0.025522
      dx2y2   :     0.031127
      dxy     :     0.052852

  2 O s       :     3.709257  s :     3.709257
      pz      :     1.674266  p :     4.510317
      px      :     1.588687
      py      :     1.247365
      dz2     :     0.002285  d :     0.016359
      dxz     :     0.002132
      dyz     :     0.002771
      dx2y2   :     0.004283
      dxy     :     0.004888

  3 C s       :     3.017757  s :     3.017757
      pz      :     0.974060  p :     2.754297
      px      :     1.018208
      py      :     0.762029
      dz2     :     0.006012  d :     0.071662
      dxz     :     0.007786
      dyz     :     0.013906
      dx2y2   :     0.024540
      dxy     :     0.019418

  4 C s       :     3.280734  s :     3.280734
      pz      :     1.008215  p :     2.720794
      px      :     0.845416
      py      :     0.867163
      dz2     :     0.002902  d :     0.032680
      dxz     :     0.003612
      dyz     :     0.005176
      dx2y2   :     0.008475
      dxy     :     0.012515

  5 C s       :     3.182745  s :     3.182745
      pz      :     0.944372  p :     2.753732
      px      :     0.888225
      py      :     0.921136
      dz2     :     0.002695  d :     0.035366
      dxz     :     0.004019
      dyz     :     0.005545
      dx2y2   :     0.011152
      dxy     :     0.011956

  6 C s       :     3.174989  s :     3.174989
      pz      :     0.985705  p :     2.769522
      px      :     0.940357
      py      :     0.843460
      dz2     :     0.002548  d :     0.034451
      dxz     :     0.005953
      dyz     :     0.002773
      dx2y2   :     0.012360
      dxy     :     0.010817

  7 C s       :     3.276835  s :     3.276835
      pz      :     0.954060  p :     2.717558
      px      :     0.812571
      py      :     0.950928
      dz2     :     0.002958  d :     0.034314
      dxz     :     0.003564
      dyz     :     0.005725
      dx2y2   :     0.011836
      dxy     :     0.010231

  8 C s       :     3.097686  s :     3.097686
      pz      :     1.041803  p :     2.845393
      px      :     0.962061
      py      :     0.841529
      dz2     :     0.003612  d :     0.039878
      dxz     :     0.005256
      dyz     :     0.006518
      dx2y2   :     0.010614
      dxy     :     0.013877

  9 C s       :     3.070611  s :     3.070611
      pz      :     0.935379  p :     2.667178
      px      :     0.919465
      py      :     0.812335
      dz2     :     0.003728  d :     0.041687
      dxz     :     0.005551
      dyz     :     0.007732
      dx2y2   :     0.012597
      dxy     :     0.012079

 10 C s       :     3.367611  s :     3.367611
      pz      :     0.990188  p :     2.774414
      px      :     0.872948
      py      :     0.911278
      dz2     :     0.002882  d :     0.030239
      dxz     :     0.002264
      dyz     :     0.004918
      dx2y2   :     0.009703
      dxy     :     0.010473

 11 C s       :     3.102466  s :     3.102466
      pz      :     0.965275  p :     2.853764
      px      :     0.956096
      py      :     0.932393
      dz2     :     0.006159  d :     0.075444
      dxz     :     0.009387
      dyz     :     0.013208
      dx2y2   :     0.024928
      dxy     :     0.021763

 12 N s       :     3.633571  s :     3.633571
      pz      :     1.237059  p :     3.342812
      px      :     0.773079
      py      :     1.332674
      dz2     :     0.005433  d :     0.042678
      dxz     :     0.006110
      dyz     :     0.006342
      dx2y2   :     0.016902
      dxy     :     0.007891

 13 O s       :     3.762908  s :     3.762908
      pz      :     1.641601  p :     4.375827
      px      :     1.277407
      py      :     1.456819
      dz2     :     0.003073  d :     0.025238
      dxz     :     0.003675
      dyz     :     0.003642
      dx2y2   :     0.009743
      dxy     :     0.005105

 14 C s       :     3.129180  s :     3.129180
      pz      :     0.880481  p :     2.530458
      px      :     0.894194
      py      :     0.755783
      dz2     :     0.006540  d :     0.085960
      dxz     :     0.008467
      dyz     :     0.015707
      dx2y2   :     0.034154
      dxy     :     0.021092

 15 N s       :     3.534036  s :     3.534036
      pz      :     1.199700  p :     3.611792
      px      :     0.985939
      py      :     1.426153
      dz2     :     0.003482  d :     0.030447
      dxz     :     0.004032
      dyz     :     0.005696
      dx2y2   :     0.004284
      dxy     :     0.012953

 16 H s       :     0.969675  s :     0.969675
      pz      :     0.004417  p :     0.023208
      px      :     0.012994
      py      :     0.005797

 17 H s       :     0.955359  s :     0.955359
      pz      :     0.004363  p :     0.022921
      px      :     0.011656
      py      :     0.006902

 18 H s       :     0.964875  s :     0.964875
      pz      :     0.004780  p :     0.023034
      px      :     0.003244
      py      :     0.015010

 19 H s       :     0.975851  s :     0.975851
      pz      :     0.004348  p :     0.024936
      px      :     0.014791
      py      :     0.005797

 20 H s       :     0.946510  s :     0.946510
      pz      :     0.004495  p :     0.023747
      px      :     0.010893
      py      :     0.008359

 21 H s       :     0.885619  s :     0.885619
      pz      :     0.003687  p :     0.022751
      px      :     0.016573
      py      :     0.002491



                     *******************************
                     * LOEWDIN POPULATION ANALYSIS *
                     *******************************

----------------------
LOEWDIN ATOMIC CHARGES
----------------------
   0 O :   -0.211016
   1 C :    0.082984
   2 O :   -0.036558
   3 C :    0.074871
   4 C :   -0.038683
   5 C :    0.002560
   6 C :   -0.029961
   7 C :   -0.004537
   8 C :   -0.053613
   9 C :    0.015526
  10 C :   -0.037871
  11 C :    0.001348
  12 N :   -0.044535
  13 O :    0.021685
  14 C :    0.116176
  15 N :   -0.126436
  16 H :    0.046273
  17 H :    0.043876
  18 H :    0.040825
  19 H :    0.031125
  20 H :    0.048440
  21 H :    0.057523

-------------------------------
LOEWDIN REDUCED ORBITAL CHARGES
-------------------------------
  0 O s       :     3.541826  s :     3.541826
      pz      :     1.422466  p :     4.638971
      px      :     1.747011
      py      :     1.469495
      dz2     :     0.004218  d :     0.030219
      dxz     :     0.000549
      dyz     :     0.007331
      dx2y2   :     0.011411
      dxy     :     0.006709

  1 C s       :     2.844497  s :     2.844497
      pz      :     0.844038  p :     2.782392
      px      :     0.970997
      py      :     0.967357
      dz2     :     0.019224  d :     0.290128
      dxz     :     0.021196
      dyz     :     0.050054
      dx2y2   :     0.074655
      dxy     :     0.124999

  2 O s       :     3.428630  s :     3.428630
      pz      :     1.651372  p :     4.575645
      px      :     1.610902
      py      :     1.313371
      dz2     :     0.004270  d :     0.032283
      dxz     :     0.002626
      dyz     :     0.005404
      dx2y2   :     0.009144
      dxy     :     0.010839

  3 C s       :     2.839821  s :     2.839821
      pz      :     0.966717  p :     2.917851
      px      :     1.093438
      py      :     0.857696
      dz2     :     0.012892  d :     0.167458
      dxz     :     0.016098
      dyz     :     0.028172
      dx2y2   :     0.059032
      dxy     :     0.051264

  4 C s       :     2.863875  s :     2.863875
      pz      :     0.996873  p :     3.087940
      px      :     1.034394
      py      :     1.056674
      dz2     :     0.006959  d :     0.086868
      dxz     :     0.007101
      dyz     :     0.011380
      dx2y2   :     0.026023
      dxy     :     0.035405

  5 C s       :     2.865291  s :     2.865291
      pz      :     0.934670  p :     3.041593
      px      :     1.053468
      py      :     1.053455
      dz2     :     0.006349  d :     0.090557
      dxz     :     0.008069
      dyz     :     0.011943
      dx2y2   :     0.031047
      dxy     :     0.033148

  6 C s       :     2.861743  s :     2.861743
      pz      :     0.976033  p :     3.078486
      px      :     1.060488
      py      :     1.041965
      dz2     :     0.006172  d :     0.089732
      dxz     :     0.013133
      dyz     :     0.005058
      dx2y2   :     0.034613
      dxy     :     0.030756

  7 C s       :     2.863423  s :     2.863423
      pz      :     0.947861  p :     3.051977
      px      :     1.066690
      py      :     1.037426
      dz2     :     0.006816  d :     0.089138
      dxz     :     0.006975
      dyz     :     0.012738
      dx2y2   :     0.033056
      dxy     :     0.029553

  8 C s       :     2.841003  s :     2.841003
      pz      :     1.026861  p :     3.106243
      px      :     1.025538
      py      :     1.053844
      dz2     :     0.008462  d :     0.106368
      dxz     :     0.011031
      dyz     :     0.013649
      dx2y2   :     0.032569
      dxy     :     0.040656

  9 C s       :     2.854433  s :     2.854433
      pz      :     0.924338  p :     3.021558
      px      :     1.023640
      py      :     1.073581
      dz2     :     0.008767  d :     0.108483
      dxz     :     0.011489
      dyz     :     0.016014
      dx2y2   :     0.036880
      dxy     :     0.035333

 10 C s       :     2.878887  s :     2.878887
      pz      :     0.982167  p :     3.075469
      px      :     1.037983
      py      :     1.055320
      dz2     :     0.007350  d :     0.083515
      dxz     :     0.005004
      dyz     :     0.010165
      dx2y2   :     0.028905
      dxy     :     0.032092

 11 C s       :     2.855248  s :     2.855248
      pz      :     0.949140  p :     2.969241
      px      :     1.011913
      py      :     1.008187
      dz2     :     0.013287  d :     0.174163
      dxz     :     0.016673
      dyz     :     0.026523
      dx2y2   :     0.060796
      dxy     :     0.056883

 12 N s       :     3.345002  s :     3.345002
      pz      :     1.243479  p :     3.616395
      px      :     0.922244
      py      :     1.450672
      dz2     :     0.010534  d :     0.083138
      dxz     :     0.011413
      dyz     :     0.008681
      dx2y2   :     0.036733
      dxy     :     0.015776

 13 O s       :     3.488368  s :     3.488368
      pz      :     1.617619  p :     4.444407
      px      :     1.316920
      py      :     1.509869
      dz2     :     0.005306  d :     0.045540
      dxz     :     0.006042
      dyz     :     0.005356
      dx2y2   :     0.019353
      dxy     :     0.009483

 14 C s       :     2.878011  s :     2.878011
      pz      :     0.885606  p :     2.815919
      px      :     1.047412
      py      :     0.882901
      dz2     :     0.014107  d :     0.189894
      dxz     :     0.013674
      dyz     :     0.032318
      dx2y2   :     0.077786
      dxy     :     0.052009

 15 N s       :     3.250861  s :     3.250861
      pz      :     1.189400  p :     3.813356
      px      :     1.122360
      py      :     1.501597
      dz2     :     0.006882  d :     0.062218
      dxz     :     0.008771
      dyz     :     0.006568
      dx2y2   :     0.008944
      dxy     :     0.031054

 16 H s       :     0.884298  s :     0.884298
      pz      :     0.014346  p :     0.069429
      px      :     0.037577
      py      :     0.017506

 17 H s       :     0.888613  s :     0.888613
      pz      :     0.013563  p :     0.067511
      px      :     0.033660
      py      :     0.020288

 18 H s       :     0.891379  s :     0.891379
      pz      :     0.014916  p :     0.067797
      px      :     0.010638
      py      :     0.042242

 19 H s       :     0.892587  s :     0.892587
      pz      :     0.013735  p :     0.076288
      px      :     0.044768
      py      :     0.017785

 20 H s       :     0.877822  s :     0.877822
      pz      :     0.015220  p :     0.073738
      px      :     0.034268
      py      :     0.024250

 21 H s       :     0.871082  s :     0.871082
      pz      :     0.011942  p :     0.071395
      px      :     0.049779
      py      :     0.009674



                      *****************************
                      * MAYER POPULATION ANALYSIS *
                      *****************************

  NA   - Mulliken gross atomic population
  ZA   - Total nuclear charge
  QA   - Mulliken gross atomic charge
  VA   - Mayer's total valence
  BVA  - Mayer's bonded valence
  FA   - Mayer's free valence

  ATOM       NA         ZA         QA         VA         BVA        FA
  0 O      8.2383     8.0000    -0.2383     2.2787     2.2787     0.0000
  1 C      5.7586     6.0000     0.2414     4.2737     4.2737    -0.0000
  2 O      8.2359     8.0000    -0.2359     2.2565     2.2565     0.0000
  3 C      5.8437     6.0000     0.1563     3.8932     3.8932     0.0000
  4 C      6.0342     6.0000    -0.0342     3.8262     3.8262     0.0000
  5 C      5.9718     6.0000     0.0282     3.7863     3.7863     0.0000
  6 C      5.9790     6.0000     0.0210     3.7753     3.7753     0.0000
  7 C      6.0287     6.0000    -0.0287     3.7745     3.7745     0.0000
  8 C      5.9830     6.0000     0.0170     3.8202     3.8202     0.0000
  9 C      5.7795     6.0000     0.2205     3.6406     3.6406    -0.0000
 10 C      6.1723     6.0000    -0.1723     3.7391     3.7391    -0.0000
 11 C      6.0317     6.0000    -0.0317     4.1558     4.1558    -0.0000
 12 N      7.0191     7.0000    -0.0191     2.8886     2.8886    -0.0000
 13 O      8.1640     8.0000    -0.1640     2.3390     2.3390     0.0000
 14 C      5.7456     6.0000     0.2544     3.9637     3.9637     0.0000
 15 N      7.1763     7.0000    -0.1763     3.1121     3.1121    -0.0000
 16 H      0.9929     1.0000     0.0071     0.9955     0.9955     0.0000
 17 H      0.9783     1.0000     0.0217     0.9801     0.9801     0.0000
 18 H      0.9879     1.0000     0.0121     0.9809     0.9809    -0.0000
 19 H      1.0008     1.0000    -0.0008     1.0452     1.0452    -0.0000
 20 H      0.9703     1.0000     0.0297     1.0290     1.0290     0.0000
 21 H      0.9084     1.0000     0.0916     0.9979     0.9979     0.0000

  Mayer bond orders larger than 0.100000
B(  0-O ,  1-C ) :   2.1029 B(  1-C ,  2-O ) :   1.0605 B(  1-C , 10-C ) :   1.0263 
B(  2-O ,  3-C ) :   1.0843 B(  3-C ,  4-C ) :   1.3571 B(  3-C ,  8-C ) :   1.2889 
B(  4-C ,  5-C ) :   1.3738 B(  4-C , 16-H ) :   0.9941 B(  5-C ,  6-C ) :   1.3230 
B(  5-C , 17-H ) :   0.9894 B(  6-C ,  7-C ) :   1.3949 B(  6-C , 18-H ) :   0.9889 
B(  7-C ,  8-C ) :   1.3186 B(  7-C , 19-H ) :   0.9704 B(  8-C ,  9-C ) :   1.0887 
B(  9-C , 10-C ) :   1.5716 B(  9-C , 11-C ) :   1.0031 B( 10-C , 20-H ) :   0.9674 
B( 11-C , 12-N ) :   1.6727 B( 11-C , 15-N ) :   1.3535 B( 12-N , 13-O ) :   0.9950 
B( 13-O , 14-C ) :   1.1876 B( 14-C , 15-N ) :   1.6775 B( 14-C , 21-H ) :   0.9710 


-------
TIMINGS
-------

Total SCF time: 0 days 0 hours 0 min 13 sec 

Total time                  ....      13.973 sec
Sum of individual times     ....      13.099 sec  ( 93.7%)

SCF preparation             ....       0.225 sec  (  1.6%)
Fock matrix formation       ....      11.740 sec  ( 84.0%)
  Startup                   ....       0.041 sec  (  0.3% of F)
  Split-RI-J                ....       1.056 sec  (  9.0% of F)
  Chain of spheres X        ....       7.586 sec  ( 64.6% of F)
  XC integration            ....       1.857 sec  ( 15.8% of F)
    Basis function eval.    ....       0.484 sec  ( 26.1% of XC)
    Density eval.           ....       0.291 sec  ( 15.7% of XC)
    XC-Functional eval.     ....       0.047 sec  (  2.5% of XC)
    XC-Potential eval.      ....       0.380 sec  ( 20.5% of XC)
  CPCM terms                ....       1.644 sec  ( 14.0% of F)
Diagonalization             ....       0.000 sec  (  0.0%)
Density matrix formation    ....       0.263 sec  (  1.9%)
Total Energy calculation    ....       0.116 sec  (  0.8%)
Population analysis         ....       0.056 sec  (  0.4%)
Orbital Transformation      ....       0.043 sec  (  0.3%)
Orbital Orthonormalization  ....       0.000 sec  (  0.0%)
DIIS solution               ....       0.310 sec  (  2.2%)
SOSCF solution              ....       0.346 sec  (  2.5%)
Finished LeanSCF after  14.1 sec

Maximum memory used throughout the entire LEANSCF-calculation: 21.8 MB


-------------------------------------------------------------------------------
                          DFT DISPERSION CORRECTION                            
                                                                               
                              DFTD3 V3.1  Rev 1                                
                          USING Becke-Johnson damping                          
-------------------------------------------------------------------------------
The B3LYP functional is recognized
Active option DFTDOPT                   ...         4   

molecular C6(AA) [au] = 6977.952621 


            DFT-D V3
 parameters
 s6 scaling factor         :     1.0000 
 a1 scaling factor         :     0.3981 
 s8 scaling factor         :     1.9889 
 a2 scaling factor         :     4.4211 
 ad hoc parameters k1-k3   :    16.0000     1.3333    -4.0000 

 Edisp/kcal,au: -30.345095533250  -0.048357982709 
 E6   /kcal   : -13.925878798 
 E8   /kcal   : -16.419216735 
 % E8         :  54.108304643 

-------------------------   ----------------
Dispersion correction           -0.048357983
-------------------------   ----------------


-------------------------   --------------------
FINAL SINGLE POINT ENERGY      -757.018704675283
-------------------------   --------------------



           ************************************************************
           *        Program running with 8 parallel MPI-processes     *
           *              working on a common directory               *
           ************************************************************

------------------------------------------------------------------------------
                              ORCA PROPERTY CALCULATIONS
------------------------------------------------------------------------------

GBWName                                 ... CMR_GOLD_043_sp_charge_clean.gbw
Number of atoms                         ...     22
Number of basis functions               ...    254
Max core memory                         ...   3000 MB

Electric properties:
Dipole moment                           ... YES
Quadrupole moment                       ...  NO
Static polarizability (Dipole/Dipole)   ...  NO
Static polarizability (Dipole/Quad.)    ...  NO
Static polarizability (Quad./Quad.)     ...  NO
Static polarizability (Velocity)        ...  NO
Static hyperpolarizability              ...  NO

Atomic electric properties:
Dipole moment                           ...  NO
Quadrupole moment                       ...  NO
Static polarizability                   ...  NO

Choice of electric origin               ... Center of mass
Position of electric origin             ...     0.338572     0.591828    -0.129027

General magnetic properties:
Magnetizability                         ...  NO

EPR properties:
g-Tensor (aka g-matrix)                 ...  NO
Zero-Field splitting spin-orbit         ...  NO
Zero-field splitting spin-spin          ...  NO
Hyperfine couplings                     ...  NO (   0 nuclei)
Quadrupole couplings                    ...  NO (   0 nuclei)
Contact density                         ...  NO (   0 nuclei)

NMR properties:
Chemical shifts                         ...  NO (   0 nuclei)
Spin-rotation constants                 ...  NO (   0 nuclei)
Spin-spin couplings                     ...  NO (   0 nuclei,    0 pairs)

Choice of magnetic origin               ... GIAO
Position of magnetic origin             ...     0.000000     0.000000     0.000000

Properties with geometric perturbations:
SCF Hessian                             ...  NO
IR spectrum                             ...  NO
VCD spectrum                            ...  NO
X-ray spectroscopy properties:
SCF XES/XAS/RIXS spectra                ...  NO

SCF SOC stabilization energy            ...  NO
Diagonal Born-Oppenheimer correction    ...  NO

-------------
DIPOLE MOMENT
-------------

Method             : SCF
Type of density    : Electron Density
Multiplicity       :   1
Irrep              :   0
Energy             :  -756.9703466925741395 Eh
Basis              : AO
                                X                 Y                 Z
Electronic contribution:      4.316749039       3.989502739      -0.980688554
Nuclear contribution   :     -3.091950323      -5.885380129       1.267322715
                        -----------------------------------------
Total Dipole Moment    :      1.224798717      -1.895877390       0.286634160
                        -----------------------------------------
Magnitude (a.u.)       :      2.275223531
Magnitude (Debye)      :      5.783158621



--------------------
Rotational spectrum 
--------------------
 
Rotational constants in cm-1:             0.027413             0.014789             0.009606 
Rotational constants in MHz :           821.833582           443.357443           287.994355 

Dipole components along the rotational axes: 
x,y,z [a.u.] :     1.307619    -1.861916    -0.006554 
x,y,z [Debye]:     3.323704    -4.732614    -0.016658 

 

Dipole moment calculation done in   0.0 sec 

Maximum memory used throughout the entire PROP-calculation: 11.2 MB

--------------------------------
SUGGESTED CITATIONS FOR THIS RUN
--------------------------------

Below you find a list of papers that are relevant to this ORCA run
We neither can nor want to force you to cite these papers, but we appreciate if you do
You receive ORCA, which is the product of decades of hard work by many enthusiastic individuals, for free
The only thing we kindly ask in return is that you cite our papers,
We deeply appreciate it, if you show your appreciation for ORCA by not just citing the generic ORCA reference.

Please note that relegating all ORCA citations to the supporting information does *not* help us.
SI sections are not indexed - citations you put there will not count into any citation statistics
But we need these citations in order to attract the funding resources that allow us to do what we are doing

Therefore, if you are a happy ORCA user, please consider citing a few of the papers listed below in the main body of your paper

In addition to the list printed below, the program has created the file CMR_GOLD_043_sp_charge_clean.bibtex that contains the list in bibtex format
You can import this file easily into all common literature databanks and citation aid programs

It goes without saying that in many instances, there are alternative algorithms to achieve similar
results as the ones you have gotten from ORCA. It is, of course, also the case that in some instances
ORCA just re-implements algorithms worked out by others. We are fully aware of that and we are also
fully appreciative of our colleagues work. Hence this citation list should not be read as indicating
that the listed papers, which are focused on our own work, are the only ones worth citing. It simply
meant to make it easier for users to cite ORCA specific papers. It is not a substitute for doing your
own literature research and citing the relevant literature in a scientifically appropriate manner.

List of essential papers. We consider these as the minimum necessary citations

  1. Neese, F.
     Software update: the ORCA program system, version 6.0
     WIRES Comput. Molec. Sci. 2025 15(1), e70019
     doi.org/10.1002/wcms.70019

List of papers to cite with high priority. The work reported in these papers was absolutely
necessary for this run to complete.
Our perspective: the developers of density functionals and basis sets usually get cited in chemistry papers
Good! But without the algorithms to do something with them, the functionals or basis sets would not do anything.
Hence, in our opinion, the algorithm design and method developments papers are equally worthy of getting cited

  1. Neese, F.
     An improvement of the resolution of the identity approximation for the formation of the Coulomb matrix
     J. Comp. Chem. 2003 24(14), 1740-1747
     doi.org/10.1002/jcc.10318
  2. Neese, F.; Wennmohs, F.; Hansen, A.; Becker, U.
     Efficient, approximate and parallel Hartree-Fock and hybrid DFT calculations. A 'chain-of-spheres' algorithm for the Hartree-Fock exchange
     Chem. Phys. 2009 356(1-3), 98-109
     doi.org/10.1016/j.chemphys.2008.10.036
  3. Grimme, S.; Antony, J.; Ehrlich, S.; Krieg, H.
     A consistent and accurate ab initio parametrization of density functional dispersion correction (DFT-D) for the 94 elements H-Pu
     J. Chem. Phys. 2010 132 , 154104
     doi.org/10.1063/1.3382344
  4. Grimme, S.; Ehrlich, S.; Goerigk, L.
     Effect of the damping function in dispersion corrected density functional theory
     J. Comput. Chem. 2011 32(7), 1456-1465
     doi.org/10.1002/jcc.21759
  5. Garcia-Rates, M.; Neese, F.
     Effect of the Solute Cavity on the Solvation Energy and its Derivatives within the Framework of the Gaussian Charge Scheme
     J. Comput. Chem. 2020 41 , 922-939
     doi.org/10.1002/jcc.26139
  6. Helmich-Paris, B.; de Souza, B.; Neese, F.; Izsák, R.
     An improved chain of spheres for exchange algorithm
     J. Chem. Phys. 2021 155(10), 104109
     doi.org/10.1063/5.0058766
  7. Neese, F.
     The SHARK Integral Generation and Digestion System
     J. Comp. Chem. 2022 44(3), 381
     doi.org/10.1002/jcc.26942

List of suggested additional citations. These are papers that are important in the 'surrounding' of 
of this run, or papers that preceded the highly important papers. If you like your results we are grateful for a citation.

  1. Izsak, R.; Neese, F.
     An overlap fitted chain of spheres exchange method
     J. Chem. Phys. 2011 135 , 144105
     doi.org/10.1063/1.3646921
  2. Izsak, R.; Hansen, A.; Neese, F.
     The resolution of identity and chain of spheres approximations for the LPNO-CCSD singles Fock term
     Molec. Phys. 2012 110 , 2413-2417
     doi.org/10.1080/00268976.2012.687466
  3. Neese, F.
     The ORCA program system
     WIRES Comput. Molec. Sci. 2012 2(1), 73-78
     doi.org/10.1002/wcms.81
  4. Izsak, R.; Neese, F.; Klopper, W.
     Robust fitting techniques in the chain of spheres approximation to the Fock exchange: The role of the complementary space
     J. Chem. Phys. 2013 139 , 
     doi.org/10.1063/1.4819264
  5. Neese, F.
     Software update: the ORCA program system, version 4.0
     WIRES Comput. Molec. Sci. 2018 8(1), 1-6
     doi.org/10.1002/wcms.1327
  6. Neese, F.; Wennmohs, F.; Becker, U.; Riplinger, C.
     The ORCA quantum chemistry program package
     J. Chem. Phys. 2020 152(22), 224108
     doi.org/10.1063/5.0004608
  7. Neese, F.
     Software update: The ORCA program system—Version 5.0
     WIRES Comput. Molec. Sci. 2022 12(1), e1606
     doi.org/10.1002/wcms.1606

List of optional additional citations

  1. Neese, F.
     Approximate second-order SCF convergence for spin unrestricted wavefunctions
     Chem. Phys. Lett. 2000 325(1-3), 93-98
     doi.org/10.1016/s0009-2614(00)00662-x

Timings for individual modules:

Sum of individual times          ...       15.904 sec (=   0.265 min)
Startup calculation              ...        1.095 sec (=   0.018 min)   6.9 %
SCF iterations                   ...       14.632 sec (=   0.244 min)  92.0 %
Property calculations            ...        0.177 sec (=   0.003 min)   1.1 %
                             ****ORCA TERMINATED NORMALLY****
TOTAL RUN TIME: 0 days 0 hours 0 minutes 16 seconds 286 msec
