68
CMR_GOLD_058 correct RDKit 3D start | SMILES-derived | formula C30H32N2O3S | MMFF94s energy 103.29881002
O        2.73544382      -1.47380819       0.46278466
C        3.60713802      -0.62752968       0.28668497
C        3.29862842       0.82625398       0.05970368
C        1.92949736       1.34523358       0.00936306
C        0.78249826       0.64558427      -0.00920175
C       -0.53932915       1.35227746      -0.06753793
C       -1.75019623       0.54139289       0.04040156
C       -1.91757371      -0.79344441       0.36148074
C       -3.28798195      -1.19195792       0.35392420
C       -4.14552540      -0.15551174       0.03964768
C       -5.60943885      -0.18280318      -0.08004617
C       -6.24613081      -1.25676257      -0.70290292
C       -7.64645988      -1.30274413      -0.81330765
C       -8.48057602      -0.29066062      -0.30984802
N       -9.86596299      -0.34140498      -0.42231003
C      -10.56373114      -1.51141192      -0.97115940
C      -10.67892112      -1.41923544      -2.48607902
C      -10.72414062       0.77551090      -0.00526379
C      -11.07942377       0.67050670       1.47103902
C       -7.81415937       0.77597861       0.31631469
C       -6.41459104       0.83408885       0.43307915
S       -3.26876960       1.28726797      -0.25468036
O       -0.54513719       2.57616916      -0.20865792
C        4.31430814       1.69759832      -0.08141685
C        5.70095046       1.26898001      -0.04368300
C        5.98652040      -0.06917966       0.13885159
C        7.30019484      -0.54897958       0.17964208
C        8.40184935       0.31106070       0.03740265
N        9.71428327      -0.14827780       0.07617161
C       10.03862557      -1.57999875       0.15287712
C       10.07503876      -2.05583013       1.59817411
C       10.86605979       0.76352818       0.04510315
C       11.27007717       1.08538027      -1.38658614
C        8.08588060       1.67211970      -0.14739455
C        6.76422667       2.14978660      -0.18890390
O        4.94860223      -1.00244049       0.29632497
H        1.85316735       2.43408860      -0.02436400
H        0.76096020      -0.43359383       0.00093364
H       -1.11002079      -1.47392195       0.60315758
H       -3.62697985      -2.19543358       0.58356528
H       -5.66534524      -2.07184000      -1.12820140
H       -8.06055883      -2.16539061      -1.32546150
H      -10.08686718      -2.45015425      -0.66786420
H      -11.57701602      -1.56599312      -0.55257046
H       -9.69703433      -1.38869480      -2.96771351
H      -11.22231278      -0.51651104      -2.78441400
H      -11.22126704      -2.28588317      -2.87683020
H      -10.27088131       1.74641118      -0.23447897
H      -11.65654173       0.76005359      -0.58434529
H      -10.19008132       0.70711254       2.10722215
H      -11.60019249      -0.26907069       1.68364406
H      -11.73750169       1.49572643       1.76058373
H       -8.36630901       1.60336084       0.75074575
H       -5.97406310       1.68683133       0.94464983
H        4.13524324       2.75769019      -0.23874434
H        7.43009923      -1.61415455       0.33662330
H        9.34984195      -2.18667063      -0.44556093
H       11.02588182      -1.75855834      -0.29250182
H       10.81790149      -1.49693143       2.17694198
H       10.34114906      -3.11665144       1.63975681
H        9.10721972      -1.92971998       2.09257574
H       11.72220814       0.29346985       0.54607942
H       10.67717721       1.67852632       0.61750725
H       10.46439419       1.58292586      -1.93461186
H       11.53033893       0.17416855      -1.93536634
H       12.14274558       1.74590440      -1.39318740
H        8.86920291       2.41311729      -0.27693213
H        6.59366739       3.21304947      -0.33818697
