
                                 *****************
                                 * O   R   C   A *
                                 *****************

                                            #,                                       
                                            ###                                      
                                            ####                                     
                                            #####                                    
                                            ######                                   
                                           ########,                                 
                                     ,,################,,,,,                         
                               ,,#################################,,                 
                          ,,##########################################,,             
                       ,#########################################, ''#####,          
                    ,#############################################,,   '####,        
                  ,##################################################,,,,####,       
                ,###########''''           ''''###############################       
              ,#####''   ,,,,##########,,,,          '''####'''          '####       
            ,##' ,,,,###########################,,,                        '##       
           ' ,,###''''                  '''############,,,                           
         ,,##''                                '''############,,,,        ,,,,,,###''
      ,#''                                            '''#######################'''  
     '                                                          ''''####''''         
             ,#######,   #######,   ,#######,      ##                                
            ,#'     '#,  ##    ##  ,#'     '#,    #''#        ,####,    ,#,          
            ##       ##  ##   ,#'  ##            #'  '#       #'       ,# #          
            ##       ##  #######   ##           ,######,      #####,      #          
            '#,     ,#'  ##    ##  '#,     ,#' ,#      #,     #,   #      #          
             '#######'   ##     ##  '#######'  #'      '#     '####' #    #          



                #########################################################
                #                        -***-                          #
                #          Department of theory and spectroscopy        #
                #                                                       #
                #                      Frank Neese                      #
                #                                                       #
                #     Directorship, Architecture, Infrastructure        #
                #                    SHARK, DRIVERS                     #
                #        Core code/Algorithms in most modules           #
                #                                                       #
                #        Max Planck Institute fuer Kohlenforschung      #
                #                Kaiser Wilhelm Platz 1                 #
                #                 D-45470 Muelheim/Ruhr                 #
                #                      Germany                          #
                #                                                       #
                #                  All rights reserved                  #
                #                        -***-                          #
                #########################################################


                         Program Version 6.1.1  -  RELEASE   -


 With contributions from (in alphabetic order):
[Max-Planck-Institut fuer Kohlenforschung]                               
  Daniel Aravena         : Magnetic Suceptibility                        
  Michael Atanasov       : Ab Initio Ligand Field Theory (pilot matlab implementation)
  Alexander A. Auer      : GIAO ZORA, VPT2 properties, NMR spectrum      
  Ute Becker             : All parallelization in ORCA, NUMFREQ, NUMCALC 
  Giovanni Bistoni       : ED, misc. LED, open-shell LED, HFLD           
  Dmytro Bykov           : pre 5.0 version of the SCF Hessian            
  Marcos Casanova-Páez   : Triplet and SCS-CIS(D). UHF-(DLPNO)-IP/EA/STEOM-CCSD. UHF-CVS-IP/STEOM-CCSD   
  Vijay G. Chilkuri      : MRCI spin determinant printing, contributions to CSF-ICE 
  Pauline Colinet        : FMM embedding                                 
  Dipayan Datta          : RHF DLPNO-CCSD density                        
  Achintya Kumar Dutta   : EOM-CC, STEOM-CC                              
  Nicolas Foglia         : Exact transition moments, OPA infrastructure, MCD improvements    
  Dmitry Ganyushin       : Spin-Orbit,Spin-Spin,Magnetic field MRCI      
  Miquel Garcia-Rates    : C-PCM and meta-GGA Hessian, CCSD/C-PCM, Gaussian charge scheme 
  Tiago L. C. Gouveia    : GS-ROHF, GS-ROCIS                             
  Yang Guo               : DLPNO-NEVPT2, F12-NEVPT2, CIM, IAO-localization        
  Andreas Hansen         : Spin unrestricted coupled pair/coupled cluster methods 
  Ingolf Harden          : AUTO-CI MPn and infrastructure                
  Benjamin Helmich-Paris : MC-RPA, TRAH-(SCF,CASSCF), AVAS, COSX integrals, SCF dyn. polar., MC-PDFT, srDFT 
  Lee Huntington         : MR-EOM, pCC                                   
  Robert Izsak           : Overlap fitted RIJCOSX, COSX-SCS-MP3, EOM     
  Riya Kayal             : Wick's Theorem for AUTO-CI, AUTO-CI UHF-CCSDT 
  Emily Kempfer          : AUTO-CI RHF CISDT and CCSDT, approximate NEVPT4
  Christian Kollmar      : KDIIS, OOCD, Brueckner-CCSD(T), CCSD density, CASPT2, CASPT2-K, improved NEVPT2 
  Axel Koslowski         : Symmetry handling                             
  Simone Kossmann        : meta-GGA functionals, TD-DFT gradient, OOMP2, (MP2 Hessian; deprecated post 5.0) 
  Lucas Lang             : DCDCAS, Hyperfine gauge corrections, ICE-SOC+SSC
  Marvin Lechner         : AUTO-CI (C++ implementation), FIC-MRCC        
  Spencer Leger          : CASSCF response                               
  Dagmar Lenk            : GEPOL surface, SMD, ORCA-2-JSON               
  Dimitrios Liakos       : Extrapolation schemes; Compound Job, Property file
  Dimitrios Manganas     : Further ROCIS development; embedding schemes. LFT, Crystal Embedding 
  Dimitrios Pantazis     : SARC Basis sets                               
  Anastasios Papadopoulos: AUTO-CI, single reference methods and gradients 
  Taras Petrenko         : pre 6.0 DFT Hessian and TD-DFT gradient,  ECA, NRVS 
  Petra Pikulova         : Analytic Raman intensities                    
  Peter Pinski           : DLPNO-MP2, DLPNO-MP2 Gradient                 
  Shashank Vittal Rao    : ES-AILFT, MagRelax                            
  Christoph Reimann      : Effective Core Potentials                     
  Marius Retegan         : Local ZFS, SOC                                
  Christoph Riplinger    : Optimizer, TS searches, QM/MM, DLPNO-CCSD(T), (RO)-DLPNO pert. Triples 
  Michael Roemelt        : Original ROCIS implementation, recursive CI coupling coefficients
  Masaaki Saitow         : Open-shell DLPNO-CCSD energy and density      
  Barbara Sandhoefer     : DKH picture change effects                    
  Yorick L. A. Schmerwitz: GMF and freeze-and-release deltaSCF, NEB S-IDPP initial path                    
  Kantharuban Sivalingam : CASSCF convergence/infrastructure, NEVPT2, NEVPT3, NEVPT4(SD), FIC-MRCI and CEPA variants
  Bernardo de Souza      : ESD, SOC TD-DFT                               
  Georgi L. Stoychev     : AutoAux, RI-MP2 NMR, DLPNO-MP2 response, X2C  
  Van Anh Tran           : RI-MP2 g-tensors                              
  Willem Van den Heuvel  : Paramagnetic NMR                              
  Zikuan Wang            : NOTCH, Electric field optimization            
  Frank Wennmohs         : Technical directorship and infrastructure     
  Hang Xu                : AUTO-CI-Response properties                   
                                                                         
[FACCTs GmbH]                                                            
  Markus Bursch, Nicolas Foglia, Miquel Garcia-Rates, Ingolf Harden, Hagen Neugebauer, Anastasios Papadopoulos, 
  Christoph Riplinger, Bernardo de Souza, Georgi L. Stoychev                                                    
                                                                 
  APM, various basis sets, CI-OPT, improved COSX, DLPNO-Multilevel,           
  DOCKER, DRACO, updates on ESD, Fragmentator, GOAT, IRC, LR-CPCM, L-BFGS, MBIS, meta-GGA TD-DFT gradient, ML-optimized integration grids, 
  MM, NACMEs, nearIR, NEB, NEB-TS, NL-DFT gradient (VV10), 2- and 3-layer-ONIOM, interface openCOSMO-RS, QMMM,   
  Crystal-QMMM, RESP, rigid body optimization, SF, symmetry and pop. for TD-DFT, various functionals, SOLVATOR                                   
                                                                         
[Other institutions]                                                     
  V. Asgeirsson          : NEB                                           
  Christoph Bannwarth    : sTDA-DFT, sTD-DFT, PBEh-3c, B97-3c, D3        
  Giovanni Bistoni       : ETS/NOCV, ADLD/ADEX, COVALED                  
  Martin Brehm           : Molecular dynamics                            
  Ronald Cardenas        : ETS/NOCV                                      
  Martina Colucci        : COVALED                                       
  Sebastian Ehlert       : rSCAN, r2SCAN, r2SCAN-3c, D4, dhf basis sets  
  Marvin Friede          : D4 for Fr, Ra, Ac-Lr                          
  Lars Goerigk           : TD-DFT with DH, B97 family of functionals     
  Stefan Grimme          : VdW corrections, initial TS optimization, DFT functionals, gCP, sTDA/sTD-DF 
  Waldemar Hujo          : DFT-NL                                        
  H. Jonsson             : NEB                                           
  Holger Kruse           : gCP                                           
  Marcel Mueller         : wB97X-3c, vDZP basis set                      
  Hagen Neugebauer       : wr2SCAN, Native XTB                           
  Gianluca Regni         : ADLD/ADEX                                     
  Tobias Risthaus        : pre 6.0 range-separated hybrid DFT and stability analysis
  Lukas Wittmann         : regularized MP2, r2SCAN double-hybrids, wr2SCAN        
                                                                         
We gratefully acknowledge several colleagues who have allowed us to      
interface, adapt or use parts of their codes:                            
  Ed Valeev, F. Pavosevic, A. Kumar             : LibInt (2-el integral package), F12 methods 
  Garnet Chan, S. Sharma, J. Yang, R. Olivares  : DMRG                   
  Ulf Ekstrom                                   : XCFun DFT Library      
  Mihaly Kallay                                 : mrcc  (arbitrary order and MRCC methods)
  Frank Weinhold                                : gennbo (NPA and NBO analysis)           
  Simon Mueller                                 : openCOSMO-RS                            
  Christopher J. Cramer and Donald G. Truhlar   : smd solvation model                     
  S Lehtola, MJT Oliveira, MAL Marques          : LibXC Library                           
  Liviu Ungur et al                             : ANISO software                          


 Your calculation uses the libint2 library for the computation of 2-el integrals
 For citations please refer to: http://libint.valeyev.net

 Your ORCA version has been built with support for libXC version: 7.0.0
 For citations please refer to: https://libxc.gitlab.io

 This ORCA versions uses:
   CBLAS   interface :  Fast vector & matrix operations
   LAPACKE interface :  Fast linear algebra routines
   Shared memory     :  Shared parallel matrices


  ***********************************
  * Starting time: Thu Jun  4 23:40:02 2026
  * Host name:     AHMET
  * Process ID:    27712
  * Working dir.:  D:\Makaleler\coumarin-logp-working-source\dft\molecules\CMR_GOLD_020
  ***********************************

NOTE: MaxCore=3000 MB was set to SCF,MP2,MDCI,CIPSI,MRCI,RASCI and CIS
      => If you want to overwrite this, your respective input block should be placed after the MaxCore statement


***************************************
The coordinates will be read from file: geometry/CMR_GOLD_020_opt.xyz
***************************************


Your calculation utilizes the atom-pairwise dispersion correction
with the Becke-Johnson damping scheme (D3BJ)


================================================================================

----- Orbital basis set information -----
Your calculation utilizes the basis: def2-SVP
   F. Weigend and R. Ahlrichs, Phys. Chem. Chem. Phys. 7, 3297 (2005).

----- AuxJ basis set information -----
Your calculation utilizes the auxiliary basis: def2/J
   H-Rn: F. Weigend, Phys. Chem. Chem. Phys. 8, 1057 (2006).
   Fr-Lr: K. Eichkorn, F. Weigend, O. Treutler, R. Ahlrichs; Theor. Chem. Acc. 97, 119 (1997).

================================================================================
                                        WARNINGS
                       Please study these warnings very carefully!
================================================================================


================================================================================
                                       INPUT FILE
================================================================================
NAME = input\CMR_GOLD_020_sp.inp
|  1> ! B3LYP D3BJ def2-SVP TightSCF RIJCOSX def2/J CPCM(Water)
|  2> 
|  3> %pal
|  4>   nprocs 8
|  5> end
|  6> 
|  7> %maxcore 3000
|  8> 
|  9> %scf
| 10>   MaxIter 500
| 11> end
| 12> 
| 13> %output
| 14>   Print[P_Mulliken] 1
| 15>   Print[P_Loewdin] 1
| 16> end
| 17> 
| 18> * xyzfile 0 1 geometry/CMR_GOLD_020_opt.xyz
| 19> 
| 20>                          ****END OF INPUT****
================================================================================

                       ****************************
                       * Single Point Calculation *
                       ****************************

---------------------------------
CARTESIAN COORDINATES (ANGSTROEM)
---------------------------------
  O     -2.135869    4.684318   -0.608658
  C     -2.583063    3.570298   -0.781736
  O     -3.872772    3.484581   -1.257444
  C     -4.526657    2.322431   -1.509482
  C     -3.904799    1.090641   -1.289791
  C     -4.640846   -0.120060   -1.573492
  C     -5.980997   -0.009055   -2.069235
  C     -6.719104   -1.188990   -2.354013
  C     -6.160321   -2.436706   -2.158821
  C     -4.837700   -2.546684   -1.669591
  C     -4.094790   -1.415160   -1.383244
  C     -6.553792    1.283938   -2.269581
  C     -5.848104    2.431897   -1.997702
  C     -2.565934    1.121384   -0.793925
  C     -1.903778    2.296535   -0.540870
  C     -0.525813    2.291296   -0.035742
  C      0.264154    3.383479    0.261343
  S      1.825544    2.883500    0.824200
  C      1.298528    1.233478    0.618887
  N      2.157282    0.175868    0.924290
  C      1.898633   -1.152154    0.834549
  C      3.057500   -1.802311    1.243724
  C      3.190035   -3.251175    1.400484
  O      2.333278   -4.049610    1.062137
  C      3.984611   -0.742762    1.560460
  C      5.372350   -0.829804    2.047750
  C      5.852174    0.129601    2.959169
  C      7.167587    0.070045    3.421075
  C      8.023604   -0.946128    2.979400
  C      7.558213   -1.897837    2.066233
  C      6.242241   -1.840557    1.599921
  N      3.415659    0.440951    1.361172
  N      0.093312    1.070855    0.178996
  H     -7.740074   -1.088929   -2.731426
  H     -6.735480   -3.338818   -2.380710
  H     -4.397313   -3.534961   -1.515899
  H     -3.077350   -1.527796   -1.006573
  H     -7.576845    1.348848   -2.648294
  H     -6.275486    3.424786   -2.146810
  H     -2.033049    0.190146   -0.604129
  H      0.004215    4.433684    0.174660
  H      0.931387   -1.531584    0.515104
  H      4.134464   -3.598086    1.878565
  H      5.179511    0.915674    3.307963
  H      7.526106    0.817425    4.133388
  H      9.052908   -0.993233    3.343881
  H      8.224932   -2.685335    1.706312
  H      5.901705   -2.567925    0.860545

----------------------------
CARTESIAN COORDINATES (A.U.)
----------------------------
  NO LB      ZA    FRAG     MASS         X           Y           Z
   0 O     8.0000    0    15.999   -4.036208    8.852079   -1.150197
   1 C     6.0000    0    12.011   -4.881281    6.746886   -1.477267
   2 O     8.0000    0    15.999   -7.318478    6.584903   -2.376224
   3 C     6.0000    0    12.011   -8.554142    4.388758   -2.852508
   4 C     6.0000    0    12.011   -7.379000    2.061013   -2.437351
   5 C     6.0000    0    12.011   -8.769927   -0.226880   -2.973468
   6 C     6.0000    0    12.011  -11.302446   -0.017111   -3.910287
   7 C     6.0000    0    12.011  -12.697266   -2.246865   -4.448441
   8 C     6.0000    0    12.011  -11.641320   -4.604708   -4.079580
   9 C     6.0000    0    12.011   -9.141928   -4.812536   -3.155069
  10 C     6.0000    0    12.011   -7.738031   -2.674265   -2.613951
  11 C     6.0000    0    12.011  -12.384871    2.426291   -4.288886
  12 C     6.0000    0    12.011  -11.051315    4.595620   -3.775110
  13 C     6.0000    0    12.011   -4.848912    2.119109   -1.500301
  14 C     6.0000    0    12.011   -3.597618    4.339822   -1.022096
  15 C     6.0000    0    12.011   -0.993642    4.329922   -0.067542
  16 C     6.0000    0    12.011    0.499178    6.393849    0.493867
  17 S    16.0000    0    32.060    3.449778    5.449025    1.557512
  18 C     6.0000    0    12.011    2.453862    2.330936    1.169527
  19 N     7.0000    0    14.007    4.076672    0.332342    1.746656
  20 C     6.0000    0    12.011    3.587897   -2.177255    1.577069
  21 C     6.0000    0    12.011    5.777837   -3.405875    2.350298
  22 C     6.0000    0    12.011    6.028292   -6.143831    2.646530
  23 O     8.0000    0    15.999    4.409256   -7.652653    2.007149
  24 C     6.0000    0    12.011    7.529824   -1.403616    2.948842
  25 C     6.0000    0    12.011   10.152270   -1.568103    3.869687
  26 C     6.0000    0    12.011   11.059007    0.244910    5.592019
  27 C     6.0000    0    12.011   13.544776    0.132366    6.464894
  28 C     6.0000    0    12.011   15.162415   -1.787923    5.630250
  29 C     6.0000    0    12.011   14.282952   -3.586391    3.904615
  30 C     6.0000    0    12.011   11.796126   -3.478149    3.023413
  31 N     7.0000    0    14.007    6.454660    0.833277    2.572243
  32 N     7.0000    0    14.007    0.176334    2.023623    0.338253
  33 H     1.0000    0     1.008  -14.626620   -2.057778   -5.161647
  34 H     1.0000    0     1.008  -12.728212   -6.309451   -4.498890
  35 H     1.0000    0     1.008   -8.309717   -6.680107   -2.864634
  36 H     1.0000    0     1.008   -5.815349   -2.887115   -1.902148
  37 H     1.0000    0     1.008  -14.318161    2.548954   -5.004550
  38 H     1.0000    0     1.008  -11.858950    6.471907   -4.056883
  39 H     1.0000    0     1.008   -3.841906    0.359323   -1.141639
  40 H     1.0000    0     1.008    0.007965    8.378448    0.330059
  41 H     1.0000    0     1.008    1.760067   -2.894275    0.973405
  42 H     1.0000    0     1.008    7.813004   -6.799397    3.549974
  43 H     1.0000    0     1.008    9.787858    1.730373    6.251145
  44 H     1.0000    0     1.008   14.222280    1.544709    7.810971
  45 H     1.0000    0     1.008   17.107516   -1.876939    6.319018
  46 H     1.0000    0     1.008   15.542869   -5.074548    3.224462
  47 H     1.0000    0     1.008   11.152606   -4.852675    1.626194

--------------------------------
INTERNAL COORDINATES (ANGSTROEM)
--------------------------------
 O      0   0   0     0.000000000000     0.00000000     0.00000000
 C      1   0   0     1.212839070018     0.00000000     0.00000000
 O      2   1   0     1.377314067299   116.85387939     0.00000000
 C      3   2   1     1.357086044468   124.65435278   179.88127519
 C      4   3   2     1.397239236119   120.75102942     0.11964591
 C      5   4   3     1.445007836443   118.75512163   180.03508558
 C      6   5   4     1.433209281512   118.64075834     0.00000000
 C      7   6   5     1.420615333611   119.39593931   179.97436456
 C      8   7   6     1.380990414053   120.78783185     0.00000000
 C      9   8   7     1.414485169868   119.83343030     0.00000000
 C     10   9   8     1.383566793245   120.66888700     0.00000000
 C      7   6   5     1.428307677352   119.57906414     0.00000000
 C     12   7   6     1.374672092221   121.49031455     0.00000000
 C      5   4   3     1.428071165436   116.92846942     0.00000000
 C     14   5   4     1.372394664203   122.33049322   359.90404612
 C     15  14   5     1.467640678468   120.89109868   180.21203613
 C     16  15  14     1.380278711183   127.48894590   179.89689959
 S     17  16  15     1.733414585053   110.92727053   180.20357576
 C     18  17  16     1.744268304486    87.84938812   359.95926274
 N     19  18  17     1.396162285199   120.33089069   180.10875619
 C     20  19  18     1.355947263175   127.59720139   179.24589921
 C     21  20  19     1.390359914298   106.23148855   179.92309879
 C     22  21  20     1.463333899588   124.75101266   175.11827509
 O     23  22  21     1.219019481047   123.71869037     7.46076543
 C     22  21  20     1.443087634201   104.87666204   359.65466793
 C     25  22  21     1.473379366297   129.36969185   179.90744730
 C     26  25  22     1.407612915030   119.66603517   215.39414500
 C     27  26  25     1.395425964019   120.43576578   180.62484010
 C     28  27  26     1.400161139409   120.19022171     0.07745014
 C     29  28  27     1.398646309729   119.75958737     0.39526643
 C     30  29  28     1.397322576108   120.22264607   359.69285044
 N     25  22  21     1.328381741198   110.25325662     0.32142527
 N     19  18  17     1.293250247936   116.13989815     0.03738412
 H      8   7   6     1.093083918711   118.58577294   179.99364135
 H      9   8   7     1.092632697957   120.28196076   180.00827301
 H     10   9   8     1.092818419578   119.72034894   180.00546628
 H     11  10   9     1.090756419997   119.20128171   179.96635305
 H     12   7   6     1.092828763501   118.54204208   179.99518939
 H     13  12   7     1.091199361517   122.12426303   180.00699596
 H     14   5   4     1.089583930457   120.04010333   179.97280482
 H     17  16  15     1.085362750634   127.68984080     0.08871734
 H     21  20  19     1.087004108058   122.07692447   358.68617562
 H     23  22  21     1.113936785073   115.53818267   188.68368102
 H     27  26  25     1.091807794904   119.18021099     1.21259216
 H     28  27  26     1.092932977986   119.72096203   180.37716884
 H     29  28  27     1.092945649649   120.12270702   180.15797423
 H     30  29  28     1.092800123328   120.15731347   179.12947661
 H     31  30  29     1.091652901599   119.50492156   177.83703482

---------------------------
INTERNAL COORDINATES (A.U.)
---------------------------
 O      0   0   0     0.000000000000     0.00000000     0.00000000
 C      1   0   0     2.291933686854     0.00000000     0.00000000
 O      2   1   0     2.602746387593   116.85387939     0.00000000
 C      3   2   1     2.564520964211   124.65435278   179.88127519
 C      4   3   2     2.640399499834   120.75102942     0.11964591
 C      5   4   3     2.730669072247   118.75512163   180.03508558
 C      6   5   4     2.708373034652   118.64075834     0.00000000
 C      7   6   5     2.684573922174   119.39593931   179.97436456
 C      8   7   6     2.609693676130   120.78783185     0.00000000
 C      9   8   7     2.672989591544   119.83343030     0.00000000
 C     10   9   8     2.614562327220   120.66888700     0.00000000
 C      7   6   5     2.699110345172   119.57906414     0.00000000
 C     12   7   6     2.597753778242   121.49031455     0.00000000
 C      5   4   3     2.698663402423   116.92846942     0.00000000
 C     14   5   4     2.593450062999   122.33049322   359.90404612
 C     15  14   5     2.773438945308   120.89109868   180.21203613
 C     16  15  14     2.608348752618   127.48894590   179.89689959
 S     17  16  15     3.275678842295   110.92727053   180.20357576
 C     18  17  16     3.296189399557    87.84938812   359.95926274
 N     19  18  17     2.638364357535   120.33089069   180.10875619
 C     20  19  18     2.562368979440   127.59720139   179.24589921
 C     21  20  19     2.627399465606   106.23148855   179.92309879
 C     22  21  20     2.765300312703   124.75101266   175.11827509
 O     23  22  21     2.303612971093   123.71869037     7.46076543
 C     22  21  20     2.727040415888   104.87666204   359.65466793
 C     25  22  21     2.784283493671   129.36969185   179.90744730
 C     26  25  22     2.660002911977   119.66603517   215.39414500
 C     27  26  25     2.636972912160   120.43576578   180.62484010
 C     28  27  26     2.645921096842   120.19022171     0.07745014
 C     29  28  27     2.643058483608   119.75958737     0.39526643
 C     30  29  28     2.640556989589   120.22264607   359.69285044
 N     25  22  21     2.510277692166   110.25325662     0.32142527
 N     19  18  17     2.443888791226   116.13989815     0.03738412
 H      8   7   6     2.065629247757   118.58577294   179.99364135
 H      9   8   7     2.064776564106   120.28196076   180.00827301
 H     10   9   8     2.065127527106   119.72034894   180.00546628
 H     11  10   9     2.061230912611   119.20128171   179.96635305
 H     12   7   6     2.065147074288   118.54204208   179.99518939
 H     13  12   7     2.062067950776   122.12426303   180.00699596
 H     14   5   4     2.059015228486   120.04010333   179.97280482
 H     17  16  15     2.051038354659   127.68984080     0.08871734
 H     21  20  19     2.054140070677   122.07692447   358.68617562
 H     23  22  21     2.105035454289   115.53818267   188.68368102
 H     27  26  25     2.063217723249   119.18021099     1.21259216
 H     28  27  26     2.065344011124   119.72096203   180.37716884
 H     29  28  27     2.065367957096   120.12270702   180.15797423
 H     30  29  28     2.065092952206   120.15731347   179.12947661
 H     31  30  29     2.062925017323   119.50492156   177.83703482

---------------------
BASIS SET INFORMATION
---------------------
There are 5 groups of distinct atoms

 Group   1 Type O   : 7s4p1d contracted to 3s2p1d pattern {511/31/1}
 Group   2 Type C   : 7s4p1d contracted to 3s2p1d pattern {511/31/1}
 Group   3 Type S   : 10s7p1d contracted to 4s3p1d pattern {5311/511/1}
 Group   4 Type N   : 7s4p1d contracted to 3s2p1d pattern {511/31/1}
 Group   5 Type H   : 4s1p contracted to 2s1p pattern {31/1}

Atom   0O    basis set group =>   1
Atom   1C    basis set group =>   2
Atom   2O    basis set group =>   1
Atom   3C    basis set group =>   2
Atom   4C    basis set group =>   2
Atom   5C    basis set group =>   2
Atom   6C    basis set group =>   2
Atom   7C    basis set group =>   2
Atom   8C    basis set group =>   2
Atom   9C    basis set group =>   2
Atom  10C    basis set group =>   2
Atom  11C    basis set group =>   2
Atom  12C    basis set group =>   2
Atom  13C    basis set group =>   2
Atom  14C    basis set group =>   2
Atom  15C    basis set group =>   2
Atom  16C    basis set group =>   2
Atom  17S    basis set group =>   3
Atom  18C    basis set group =>   2
Atom  19N    basis set group =>   4
Atom  20C    basis set group =>   2
Atom  21C    basis set group =>   2
Atom  22C    basis set group =>   2
Atom  23O    basis set group =>   1
Atom  24C    basis set group =>   2
Atom  25C    basis set group =>   2
Atom  26C    basis set group =>   2
Atom  27C    basis set group =>   2
Atom  28C    basis set group =>   2
Atom  29C    basis set group =>   2
Atom  30C    basis set group =>   2
Atom  31N    basis set group =>   4
Atom  32N    basis set group =>   4
Atom  33H    basis set group =>   5
Atom  34H    basis set group =>   5
Atom  35H    basis set group =>   5
Atom  36H    basis set group =>   5
Atom  37H    basis set group =>   5
Atom  38H    basis set group =>   5
Atom  39H    basis set group =>   5
Atom  40H    basis set group =>   5
Atom  41H    basis set group =>   5
Atom  42H    basis set group =>   5
Atom  43H    basis set group =>   5
Atom  44H    basis set group =>   5
Atom  45H    basis set group =>   5
Atom  46H    basis set group =>   5
Atom  47H    basis set group =>   5
---------------------------------
AUXILIARY/J BASIS SET INFORMATION
---------------------------------
There are 5 groups of distinct atoms

 Group   1 Type O   : 12s5p4d2f1g contracted to 6s4p3d1f1g pattern {711111/2111/211/2/1}
 Group   2 Type C   : 12s5p4d2f1g contracted to 6s4p3d1f1g pattern {711111/2111/211/2/1}
 Group   3 Type S   : 14s5p5d2f1g contracted to 8s4p3d1f1g pattern {71111111/2111/311/2/1}
 Group   4 Type N   : 12s5p4d2f1g contracted to 6s4p3d1f1g pattern {711111/2111/211/2/1}
 Group   5 Type H   : 5s2p1d contracted to 3s1p1d pattern {311/2/1}

Atom   0O    basis set group =>   1
Atom   1C    basis set group =>   2
Atom   2O    basis set group =>   1
Atom   3C    basis set group =>   2
Atom   4C    basis set group =>   2
Atom   5C    basis set group =>   2
Atom   6C    basis set group =>   2
Atom   7C    basis set group =>   2
Atom   8C    basis set group =>   2
Atom   9C    basis set group =>   2
Atom  10C    basis set group =>   2
Atom  11C    basis set group =>   2
Atom  12C    basis set group =>   2
Atom  13C    basis set group =>   2
Atom  14C    basis set group =>   2
Atom  15C    basis set group =>   2
Atom  16C    basis set group =>   2
Atom  17S    basis set group =>   3
Atom  18C    basis set group =>   2
Atom  19N    basis set group =>   4
Atom  20C    basis set group =>   2
Atom  21C    basis set group =>   2
Atom  22C    basis set group =>   2
Atom  23O    basis set group =>   1
Atom  24C    basis set group =>   2
Atom  25C    basis set group =>   2
Atom  26C    basis set group =>   2
Atom  27C    basis set group =>   2
Atom  28C    basis set group =>   2
Atom  29C    basis set group =>   2
Atom  30C    basis set group =>   2
Atom  31N    basis set group =>   4
Atom  32N    basis set group =>   4
Atom  33H    basis set group =>   5
Atom  34H    basis set group =>   5
Atom  35H    basis set group =>   5
Atom  36H    basis set group =>   5
Atom  37H    basis set group =>   5
Atom  38H    basis set group =>   5
Atom  39H    basis set group =>   5
Atom  40H    basis set group =>   5
Atom  41H    basis set group =>   5
Atom  42H    basis set group =>   5
Atom  43H    basis set group =>   5
Atom  44H    basis set group =>   5
Atom  45H    basis set group =>   5
Atom  46H    basis set group =>   5
Atom  47H    basis set group =>   5


           ************************************************************
           *        Program running with 8 parallel MPI-processes     *
           *              working on a common directory               *
           ************************************************************
------------------------------------------------------------------------------
                             ORCA STARTUP CALCULATIONS
                           -- RI-GTO INTEGRALS CHOSEN --
------------------------------------------------------------------------------
------------------------------------------------------------------------------
                   ___                                                        
                  /   \      - P O W E R E D   B Y -                         
                 /     \                                                     
                 |  |  |   _    _      __       _____    __    __             
                 |  |  |  | |  | |    /  \     |  _  \  |  |  /  |          
                  \  \/   | |  | |   /    \    | | | |  |  | /  /          
                 / \  \   | |__| |  /  /\  \   | |_| |  |  |/  /          
                |  |  |   |  __  | /  /__\  \  |    /   |      \           
                |  |  |   | |  | | |   __   |  |    \   |  |\   \          
                \     /   | |  | | |  |  |  |  | |\  \  |  | \   \       
                 \___/    |_|  |_| |__|  |__|  |_| \__\ |__|  \__/        
                                                                              
                      - O R C A' S   B I G   F R I E N D -                    
                                      &                                       
                       - I N T E G R A L  F E E D E R -                       
                                                                              
 v1 FN, 2020, v2 2021, v3 2022-2024                                           
------------------------------------------------------------------------------


----------------------
SHARK INTEGRAL PACKAGE
----------------------

Number of atoms                             ...     48
Number of basis functions                   ...    541
Number of shells                            ...    245
Maximum angular momentum                    ...      2
Integral batch strategy                     ... SHARK/LIBINT Hybrid
RI-J (if used) integral strategy            ... SPLIT-RIJ (Revised 2003 algorithm where possible)
Printlevel                                  ...      1
Contraction scheme used                     ... SEGMENTED contraction
Prescreening option                         ... SCHWARTZ
   Thresh                                   ... 2.500e-11
   Tcut                                     ... 2.500e-12
   Tpresel                                  ... 2.500e-12 
Coulomb Range Separation                    ... NOT USED
Exchange Range Separation                   ... NOT USED
Multipole approximations                    ... NOT USED
Finite Nucleus Model                        ... NOT USED
CABS basis                                  ... NOT available
Auxiliary Coulomb fitting basis             ... AVAILABLE
   # of basis functions in Aux-J            ...   1784
   # of shells in Aux-J                     ...    572
   Maximum angular momentum in Aux-J        ...      4
Auxiliary J/K fitting basis                 ... NOT available
Auxiliary Correlation fitting basis         ... NOT available
Auxiliary 'external' fitting basis          ... NOT available

Checking pre-screening integrals            ... done (  0.0 sec) Dimension = 245
   => SHARK Basis and OBASIS are compatible. Storing Pre-screening
Shell pair information
Shell pair cut-off parameter TPreSel        ...   2.5e-12
Total number of shell pairs                 ...     30135
Shell pairs after pre-screening             ...     15577
Total number of primitive shell pairs       ...    114487
Primitive shell pairs kept                  ...     36658
          la=0 lb=0:   4397 shell pairs
          la=1 lb=0:   5755 shell pairs
          la=1 lb=1:   1931 shell pairs
          la=2 lb=0:   1958 shell pairs
          la=2 lb=1:   1314 shell pairs
          la=2 lb=2:    222 shell pairs

Checking whether 4 symmetric matrices of dimension 541 fit in memory
:Max Core in MB      =   3000.00
 MB in use           =     18.88
 MB left             =   2981.12
 MB needed           =      4.47
 Data fit in memory  = YES
Calculating RI/J V-Matrix + Cholesky decomp.... done (  0.1 sec)
Calculating Nuclear repulsion               ... done (  0.0 sec) ENN=   3042.748646020938 Eh

Diagonalization of the overlap matrix:
Smallest eigenvalue                        ... 2.172e-04
Time for diagonalization                   ...    0.017 sec
Threshold for overlap eigenvalues          ... 1.000e-07
Number of eigenvalues below threshold      ... 0
Time for construction of square roots      ...    0.014 sec
Total time needed                          ...    0.033 sec

-------------------
DFT GRID GENERATION
-------------------

General Integration Accuracy     IntAcc      ... 4.388
Radial Grid Type                 RadialGrid  ... OptM3 with GC (2021)
Angular Grid (max. ang.)         AngularGrid ... 4 (Lebedev-302)
Angular grid pruning method      GridPruning ... 4 (adaptive)
Weight generation scheme         WeightScheme... mBecke (2022)
Basis function cutoff            BFCut       ... 1.0000e-11
Integration weight cutoff        WCut        ... 1.0000e-14
Partially contracted basis set               ... off
Rotationally invariant grid construction     ... off
Angular grids for H and He will be reduced by one unit

Total number of grid points                  ...   246637
Total number of batches                      ...     3878
Average number of points per batch           ...       63
Average number of grid points per atom       ...     5138

--------------------
COSX GRID GENERATION
--------------------

GRIDX 1
-------
General Integration Accuracy     IntAcc      ... 3.816
Radial Grid Type                 RadialGrid  ... OptM3 with GC (2021)
Angular Grid (max. ang.)         AngularGrid ... 1 (Lebedev-50)
Angular grid pruning method      GridPruning ... 4 (adaptive)
Weight generation scheme         WeightScheme... mBecke (2022)
Basis function cutoff            BFCut       ... 1.0000e-11
Integration weight cutoff        WCut        ... 1.0000e-14
Partially contracted basis set               ... on
Rotationally invariant grid construction     ... off
Angular grids for H and He will be reduced by one unit

Total number of grid points                  ...    32287
Total number of batches                      ...      273
Average number of points per batch           ...      118
Average number of grid points per atom       ...      673
UseSFitting                                  ... on

GRIDX 2
-------
General Integration Accuracy     IntAcc      ... 4.020
Radial Grid Type                 RadialGrid  ... OptM3 with GC (2021)
Angular Grid (max. ang.)         AngularGrid ... 2 (Lebedev-110)
Angular grid pruning method      GridPruning ... 4 (adaptive)
Weight generation scheme         WeightScheme... mBecke (2022)
Basis function cutoff            BFCut       ... 1.0000e-11
Integration weight cutoff        WCut        ... 1.0000e-14
Partially contracted basis set               ... on
Rotationally invariant grid construction     ... off
Angular grids for H and He will be reduced by one unit

Total number of grid points                  ...    69451
Total number of batches                      ...      563
Average number of points per batch           ...      123
Average number of grid points per atom       ...     1447
UseSFitting                                  ... on

GRIDX 3
-------
General Integration Accuracy     IntAcc      ... 4.338
Radial Grid Type                 RadialGrid  ... OptM3 with GC (2021)
Angular Grid (max. ang.)         AngularGrid ... 3 (Lebedev-194)
Angular grid pruning method      GridPruning ... 4 (adaptive)
Weight generation scheme         WeightScheme... mBecke (2022)
Basis function cutoff            BFCut       ... 1.0000e-11
Integration weight cutoff        WCut        ... 1.0000e-14
Partially contracted basis set               ... on
Rotationally invariant grid construction     ... off
Angular grids for H and He will be reduced by one unit

Total number of grid points                  ...   152899
Total number of batches                      ...     1223
Average number of points per batch           ...      125
Average number of grid points per atom       ...     3185
UseSFitting                                  ... on
Grids setup in   1.6 sec
Initializing property integral containers    ... done (  0.1 sec)

SHARK setup successfully completed in   1.9 seconds

Maximum memory used throughout the entire STARTUP-calculation: 63.5 MB


           ************************************************************
           *        Program running with 8 parallel MPI-processes     *
           *              working on a common directory               *
           ************************************************************
-------------------------------------------------------------------------------
                                 ORCA GUESS
                   Start orbitals & Density for SCF / CASSCF
-------------------------------------------------------------------------------

------------
SCF SETTINGS
------------
Hamiltonian:
 Density Functional     Method          .... DFT(GTOs)
 Exchange Functional    Exchange        .... B88
   X-Alpha parameter    XAlpha          ....  0.666667
   Becke's b parameter  XBeta           ....  0.004200
 Correlation Functional Correlation     .... LYP
 LDA part of GGA corr.  LDAOpt          .... VWN-5
 Gradients option       PostSCFGGA      .... off
 Hybrid DFT is turned on
   Fraction HF Exchange ScalHFX         ....  0.200000
   Scaling of DF-GGA-X  ScalDFX         ....  0.720000
   Scaling of DF-GGA-C  ScalDFC         ....  0.810000
   Scaling of DF-LDA-C  ScalLDAC        ....  1.000000
   Perturbative correction              ....  0.000000
   NL short-range parameter             ....  4.800000
 RI-approximation to the Coulomb term is turned on
   Number of AuxJ basis functions       .... 1784
   RIJ-COSX (HFX calculated with COS-X)).... on


General Settings:
 Integral files         IntName         .... input\CMR_GOLD_020_sp
 Hartree-Fock type      HFTyp           .... RHF
 Total Charge           Charge          ....    0
 Multiplicity           Mult            ....    1
 Number of Electrons    NEL             ....  232
 Basis Dimension        Dim             ....  541
 Nuclear Repulsion      ENuc            ....   3042.7486460209 Eh

Convergence Acceleration:
 AO-DIIS                CNVDIIS         .... on
   Start iteration      DIISMaxIt       ....    12
   Startup error        DIISStart       ....  0.200000
   # of expansion vecs  DIISMaxEq       ....     5
   Bias factor          DIISBfac        ....   1.050
   Max. coefficient     DIISMaxC        ....  10.000
 MO-DIIS                CNVKDIIS        .... off
 Trust-Rad. Augm. Hess. CNVTRAH         .... auto
   Auto Start mean grad. ratio tolernc. ....  1.125000
   Auto Start start iteration           ....    50
   Auto Start num. interpolation iter.  ....    10
   Max. Number of Micro iterations      ....    24
   Max. Number of Macro iterations      .... Maxiter - #DIIS iter
   Number of Davidson start vectors     ....     2
   Converg. threshold    (grad. norm)   ....   1.000e-05
   Grad. Scal. Fac. for Micro threshold ....   0.100
   Minimum threshold for Micro iter.    ....   1.000e-02
   NR start threshold (gradient norm)   ....   1.000e-04
   Initial trust radius                 ....   0.400
   Minimum AH scaling param. (alpha)    ....   1.000
   Maximum AH scaling param. (alpha)    .... 1000.000
   Quad. conv. algorithm                .... NR
   White noise on init. David. guess    .... on
   Maximum white noise                  ....   0.010
   Pseudo random numbers                .... off
   Inactive MOs                         .... canonical
   Orbital update algorithm             .... Taylor
   Preconditioner                       .... Diag
   Full preconditioner red. dimension   ....   250
 SOSCF                 CNVSOSCF           .... on
   Start iteration     SOSCFMaxIt         ....   150
   Startup grad/error  SOSCFStart         ....  0.003300
   Hessian update      SOSCFHessUp        .... L-BFGS
   Autom. constraints  SOSCFAutoConstrain .... off
 Level Shifting         CNVShift        .... on
   Level shift para.    LevelShift      ....    0.2500
   Turn off err/grad.   ShiftErr        ....    0.0010
 Zerner damping         CNVZerner       .... off
 Static damping         CNVDamp         .... on
   Fraction old density DampFac         ....    0.7000
   Max. Damping (<1)    DampMax         ....    0.9800
   Min. Damping (>=0)   DampMin         ....    0.0000
   Turn off err/grad.   DampErr         ....    0.1000

SCF Procedure:
 Maximum # iterations   MaxIter         ....   500
 SCF integral mode      SCFMode         .... Direct
   Integral package                     .... SHARK and LIBINT hybrid scheme
 Reset frequency        DirectResetFreq ....    20
 Integral Threshold     Thresh          ....  2.500e-11 Eh
 Primitive CutOff       TCut            ....  2.500e-12 Eh

Convergence Tolerance:
 Convergence Check Mode ConvCheckMode   .... Total+1el-Energy
 Convergence forced     ConvForced      .... 0
 Energy Change          TolE            ....  1.000e-08 Eh
 1-El. energy change                    ....  1.000e-05 Eh
 Orbital Gradient       TolG            ....  1.000e-05
 Orbital Rotation angle TolX            ....  1.000e-05
 DIIS Error             TolErr          ....  5.000e-07

------------------------------
INITIAL GUESS: MODEL POTENTIAL
------------------------------
Loading Hartree-Fock densities                     ... done
Calculating cut-offs                               ... done
Initializing the effective Hamiltonian             ... done
Setting up the integral package (SHARK)            ... done
Starting the Coulomb interaction                   ... done (   0.1 sec)
Making the grid                                    ... done (   0.3 sec)
Mapping shells                                     ... done
Starting the XC term evaluation                    ... done (   0.1 sec)
  promolecular density results
     # of electrons  =    232.002004889
     EX              =   -207.521090147
     EC              =     -8.114391939
     EX+EC           =   -215.635482086
Transforming the Hamiltonian                       ... done (   0.0 sec)
Diagonalizing the Hamiltonian                      ... done (   0.0 sec)
Back transforming the eigenvectors                 ... done (   0.0 sec)
Now organizing SCF variables                       ... done
                      ------------------
                      INITIAL GUESS DONE (   0.6 sec)
                      ------------------
             **** ENERGY FILE WAS UPDATED (input\CMR_GOLD_020_sp.en.tmp) ****
Finished Guess after   0.8 sec
Maximum memory used throughout the entire GUESS-calculation: 26.7 MB


           ************************************************************
           *        Program running with 8 parallel MPI-processes     *
           *              working on a common directory               *
           ************************************************************

-------------------------------------------------------------------------------------------
                                      ORCA LEAN-SCF
                              memory conserving SCF solver
-------------------------------------------------------------------------------------------

--------------------
CPCM SOLVATION MODEL
--------------------
CPCM parameters:
  Epsilon                                         ...      80.1510
  Refrac                                          ...       1.3328
  Rsolv                                           ...       1.3000
  Surface type                                    ... GAUSSIAN VDW
  Discretization scheme                           ... Constant charge density
    Threshold for H atoms                         ...       5.0000 (charges/Ang^2)
    Threshold for non-H atoms                     ...       5.0000 (charges/Ang^2)
  Epsilon function type                           ...         CPCM
Solvent:                                          ... WATER
Radii:
  Scheme                                          ... Element-dependent radii
  Radius for O  used is    3.4469 Bohr (=   1.8240 Ang.)
  Radius for C  used is    3.8550 Bohr (=   2.0400 Ang.)
  Radius for S  used is    4.0818 Bohr (=   2.1600 Ang.)
  Radius for N  used is    3.5149 Bohr (=   1.8600 Ang.)
  Radius for H  used is    2.4944 Bohr (=   1.3200 Ang.)
Calculating surface                               ...        done! (  0.0s)
Cavity surface points                             ...         4524
Cavity Volume                                     ...    3363.8681
Cavity Surface-area                               ...    1657.6518
Calculating surface distance matrix               ...        done! (  0.1s)
Performing Cholesky decomposition & store         ...        done! (  0.4s)
Overall time for CPCM initialization              ...                 0.5s

----------------------------------------D-I-I-S--------------------------------------------
Iteration    Energy (Eh)           Delta-E    RMSDP     MaxDP     DIISErr   Damp  Time(sec)
-------------------------------------------------------------------------------------------
               ***  Starting incremental Fock matrix formation  ***
    1    -1785.3342478699660205     0.00e+00  6.47e-03  1.10e-01  2.71e-01  0.700   3.9
    2    -1785.6307330615627507    -2.96e-01  4.28e-03  7.08e-02  1.04e-01  0.700   3.1
                               ***Turning on AO-DIIS***
    3    -1785.7452060849000191    -1.14e-01  1.95e-03  2.53e-02  3.52e-02  0.700   3.1
    4    -1785.8161321783773019    -7.09e-02  3.75e-03  7.10e-02  1.79e-02  0.000   2.9
    5    -1785.9719497773367038    -1.56e-01  5.50e-04  7.05e-03  6.18e-03  0.000   2.8
                              *** Initializing SOSCF ***
---------------------------------------S-O-S-C-F--------------------------------------
Iteration    Energy (Eh)           Delta-E    RMSDP     MaxDP     MaxGrad    Time(sec)
--------------------------------------------------------------------------------------
    6    -1785.9730763654142720    -1.13e-03  2.08e-04  3.29e-03  3.12e-03     3.1
               *** Restarting incremental Fock matrix formation ***
    7    -1785.9730199150972112     5.65e-05  1.94e-04  4.45e-03  4.67e-04     5.1
    8    -1785.9729857454994999     3.42e-05  1.11e-04  3.04e-03  8.06e-04     4.0
    9    -1785.9730524463866459    -6.67e-05  3.01e-05  4.75e-04  6.54e-05     3.6
   10    -1785.9730519916029152     4.55e-07  1.56e-05  2.89e-04  8.84e-05     3.5
   11    -1785.9730532181201852    -1.23e-06  7.76e-06  1.23e-04  1.91e-05     3.1
   12    -1785.9730532372313974    -1.91e-08  4.52e-06  8.30e-05  2.26e-05     3.2
   13    -1785.9730532817056883    -4.45e-08  1.18e-06  3.15e-05  2.65e-06     2.7
   14    -1785.9730532760841015     5.62e-09  6.99e-07  1.46e-05  3.66e-06     2.2
                 **** Energy Check signals convergence ****

               *****************************************************
               *                     SUCCESS                       *
               *           SCF CONVERGED AFTER  14 CYCLES          *
               *****************************************************

Recomputing exchange energy using gridx3       ... done (    7.645 sec)
Old exchange energy                            :    -41.868092028 Eh
New exchange energy                            :    -41.868086681 Eh
Exchange energy change after final integration :      0.000005347 Eh
Total energy after final integration           :  -1785.973047951 Eh
             **** ENERGY FILE WAS UPDATED (input\CMR_GOLD_020_sp.en.tmp) ****

----------------
TOTAL SCF ENERGY
----------------

Total Energy       :      -1785.97304795077844 Eh          -48598.79735 eV

Components:
Nuclear Repulsion  :       3042.74864602093839 Eh           82797.40000 eV
Electronic Energy  :      -4828.69722700343300 Eh         -131395.53157 eV
One Electron Energy:      -8484.70863898777134 Eh         -230880.65981 eV
Two Electron Energy:       3656.01141198433834 Eh           99485.12825 eV
CPCM Dielectric    :         -0.02447231504865 Eh              -0.66593 eV

Virial components:
Potential Energy   :      -3557.76601465350996 Eh          -96811.73507 eV
Kinetic Energy     :       1771.79296670273129 Eh           48212.93772 eV
Virial Ratio       :          2.00800323825330

DFT components:
N(Alpha)           :      116.000049870297 electrons
N(Beta)            :      116.000049870297 electrons
N(Total)           :      232.000099740593 electrons
E(X)               :     -166.457353556968 Eh       
E(C)               :       -9.533722800187 Eh       
E(XC)              :     -175.991076357155 Eh       

CPCM Solvation Model Properties:
Surface-charge          :         -0.02919315667589
Corrected charge        :         -0.00000000000000
Outlying charge corr.   :          0.00003734455899 Eh               0.00102 eV
Free-energy (cav+disp)  :  This term is not implemented in the current solvation scheme

---------------
SCF CONVERGENCE
---------------

  Last Energy change         ...   -5.6216e-09  Tolerance :   1.0000e-08
  Last MAX-Density change    ...    1.4646e-05  Tolerance :   1.0000e-07
  Last RMS-Density change    ...    6.9852e-07  Tolerance :   5.0000e-09
  Last DIIS Error            ...    3.1151e-03  Tolerance :   5.0000e-07
  Last Orbital Gradient      ...    3.6622e-06  Tolerance :   1.0000e-05
  Last Orbital Rotation      ...    6.4071e-06  Tolerance :   1.0000e-05


----------------
ORBITAL ENERGIES
----------------

  NO   OCC          E(Eh)            E(eV) 
   0   2.0000     -88.895538     -2418.9706 
   1   2.0000     -19.209533      -522.7180 
   2   2.0000     -19.132148      -520.6122 
   3   2.0000     -19.127339      -520.4814 
   4   2.0000     -14.443725      -393.0337 
   5   2.0000     -14.364722      -390.8840 
   6   2.0000     -14.344001      -390.3201 
   7   2.0000     -10.329918      -281.0914 
   8   2.0000     -10.300606      -280.2937 
   9   2.0000     -10.279792      -279.7274 
  10   2.0000     -10.273946      -279.5683 
  11   2.0000     -10.250809      -278.9387 
  12   2.0000     -10.242379      -278.7093 
  13   2.0000     -10.241623      -278.6887 
  14   2.0000     -10.222608      -278.1713 
  15   2.0000     -10.221412      -278.1388 
  16   2.0000     -10.220820      -278.1227 
  17   2.0000     -10.214627      -277.9541 
  18   2.0000     -10.213248      -277.9166 
  19   2.0000     -10.208598      -277.7901 
  20   2.0000     -10.207973      -277.7731 
  21   2.0000     -10.206108      -277.7223 
  22   2.0000     -10.205095      -277.6948 
  23   2.0000     -10.203187      -277.6428 
  24   2.0000     -10.197696      -277.4934 
  25   2.0000     -10.196509      -277.4611 
  26   2.0000     -10.196226      -277.4534 
  27   2.0000     -10.195937      -277.4456 
  28   2.0000     -10.195688      -277.4388 
  29   2.0000     -10.194418      -277.4042 
  30   2.0000     -10.193960      -277.3917 
  31   2.0000     -10.193765      -277.3864 
  32   2.0000     -10.193632      -277.3828 
  33   2.0000      -7.991021      -217.4467 
  34   2.0000      -5.959319      -162.1613 
  35   2.0000      -5.955095      -162.0464 
  36   2.0000      -5.952251      -161.9690 
  37   2.0000      -1.120756       -30.4973 
  38   2.0000      -1.081156       -29.4197 
  39   2.0000      -1.032713       -28.1015 
  40   2.0000      -1.028325       -27.9822 
  41   2.0000      -0.983436       -26.7607 
  42   2.0000      -0.882720       -24.0200 
  43   2.0000      -0.877915       -23.8893 
  44   2.0000      -0.849387       -23.1130 
  45   2.0000      -0.836762       -22.7695 
  46   2.0000      -0.825856       -22.4727 
  47   2.0000      -0.820412       -22.3245 
  48   2.0000      -0.803926       -21.8759 
  49   2.0000      -0.782285       -21.2871 
  50   2.0000      -0.761679       -20.7263 
  51   2.0000      -0.751455       -20.4481 
  52   2.0000      -0.742776       -20.2120 
  53   2.0000      -0.736033       -20.0285 
  54   2.0000      -0.720470       -19.6050 
  55   2.0000      -0.688034       -18.7224 
  56   2.0000      -0.664966       -18.0946 
  57   2.0000      -0.658721       -17.9247 
  58   2.0000      -0.643688       -17.5156 
  59   2.0000      -0.629380       -17.1263 
  60   2.0000      -0.613813       -16.7027 
  61   2.0000      -0.607268       -16.5246 
  62   2.0000      -0.592803       -16.1310 
  63   2.0000      -0.582607       -15.8535 
  64   2.0000      -0.573913       -15.6170 
  65   2.0000      -0.570946       -15.5362 
  66   2.0000      -0.568011       -15.4564 
  67   2.0000      -0.536362       -14.5952 
  68   2.0000      -0.532475       -14.4894 
  69   2.0000      -0.520603       -14.1663 
  70   2.0000      -0.511190       -13.9102 
  71   2.0000      -0.498052       -13.5527 
  72   2.0000      -0.493282       -13.4229 
  73   2.0000      -0.489424       -13.3179 
  74   2.0000      -0.479988       -13.0611 
  75   2.0000      -0.479346       -13.0437 
  76   2.0000      -0.469406       -12.7732 
  77   2.0000      -0.467484       -12.7209 
  78   2.0000      -0.457702       -12.4547 
  79   2.0000      -0.453536       -12.3413 
  80   2.0000      -0.450323       -12.2539 
  81   2.0000      -0.446950       -12.1621 
  82   2.0000      -0.441855       -12.0235 
  83   2.0000      -0.431650       -11.7458 
  84   2.0000      -0.430440       -11.7129 
  85   2.0000      -0.429532       -11.6882 
  86   2.0000      -0.426555       -11.6071 
  87   2.0000      -0.422895       -11.5076 
  88   2.0000      -0.418011       -11.3746 
  89   2.0000      -0.414830       -11.2881 
  90   2.0000      -0.409598       -11.1457 
  91   2.0000      -0.400003       -10.8846 
  92   2.0000      -0.396774       -10.7968 
  93   2.0000      -0.385594       -10.4926 
  94   2.0000      -0.380376       -10.3506 
  95   2.0000      -0.375583       -10.2201 
  96   2.0000      -0.375363       -10.2141 
  97   2.0000      -0.356283        -9.6949 
  98   2.0000      -0.353313        -9.6141 
  99   2.0000      -0.350792        -9.5455 
 100   2.0000      -0.347879        -9.4663 
 101   2.0000      -0.341004        -9.2792 
 102   2.0000      -0.322845        -8.7850 
 103   2.0000      -0.321375        -8.7451 
 104   2.0000      -0.319715        -8.6999 
 105   2.0000      -0.304554        -8.2873 
 106   2.0000      -0.303959        -8.2712 
 107   2.0000      -0.291390        -7.9291 
 108   2.0000      -0.285463        -7.7678 
 109   2.0000      -0.276304        -7.5186 
 110   2.0000      -0.267318        -7.2741 
 111   2.0000      -0.259781        -7.0690 
 112   2.0000      -0.255918        -6.9639 
 113   2.0000      -0.251638        -6.8474 
 114   2.0000      -0.239064        -6.5053 
 115   2.0000      -0.215272        -5.8578 
 116   0.0000      -0.084316        -2.2943 
 117   0.0000      -0.072898        -1.9836 
 118   0.0000      -0.052253        -1.4219 
 119   0.0000      -0.040943        -1.1141 
 120   0.0000      -0.024889        -0.6773 
 121   0.0000      -0.015597        -0.4244 
 122   0.0000      -0.011643        -0.3168 
 123   0.0000       0.007953         0.2164 
 124   0.0000       0.020610         0.5608 
 125   0.0000       0.026261         0.7146 
 126   0.0000       0.043035         1.1710 
*Only the first 10 virtual orbitals were printed.

                    ********************************
                    * MULLIKEN POPULATION ANALYSIS *
                    ********************************

-----------------------
MULLIKEN ATOMIC CHARGES
-----------------------
   0 O :   -0.234193
   1 C :    0.211253
   2 O :   -0.232439
   3 C :    0.136485
   4 C :    0.067784
   5 C :    0.079291
   6 C :    0.054222
   7 C :   -0.031200
   8 C :    0.015572
   9 C :    0.018857
  10 C :   -0.062638
  11 C :   -0.009908
  12 C :   -0.016361
  13 C :    0.000615
  14 C :   -0.019623
  15 C :    0.046973
  16 C :   -0.104464
  17 S :    0.147057
  18 C :    0.056726
  19 N :   -0.070626
  20 C :    0.124729
  21 C :   -0.093507
  22 C :    0.165486
  23 O :   -0.260897
  24 C :    0.063769
  25 C :    0.026638
  26 C :   -0.009557
  27 C :    0.005822
  28 C :    0.012211
  29 C :   -0.001976
  30 C :   -0.017861
  31 N :   -0.127784
  32 N :   -0.128699
  33 H :   -0.000080
  34 H :    0.008915
  35 H :    0.009062
  36 H :    0.000083
  37 H :    0.012427
  38 H :    0.006580
  39 H :    0.011747
  40 H :    0.050406
  41 H :    0.052310
  42 H :    0.007071
  43 H :   -0.006093
  44 H :    0.009126
  45 H :    0.010748
  46 H :    0.009467
  47 H :    0.006476
Sum of atomic charges:    0.0000000

--------------------------------
MULLIKEN REDUCED ORBITAL CHARGES
--------------------------------
  0 O s       :     3.704239  s :     3.704239
      pz      :     1.470910  p :     4.512386
      px      :     1.641659
      py      :     1.399818
      dz2     :     0.002098  d :     0.017568
      dxz     :     0.000758
      dyz     :     0.004744
      dx2y2   :     0.004952
      dxy     :     0.005015

  1 C s       :     3.032703  s :     3.032703
      pz      :     0.842659  p :     2.628554
      px      :     0.809076
      py      :     0.976820
      dz2     :     0.009763  d :     0.127490
      dxz     :     0.016677
      dyz     :     0.022628
      dx2y2   :     0.044078
      dxy     :     0.034344

  2 O s       :     3.707942  s :     3.707942
      pz      :     1.640592  p :     4.508221
      px      :     1.352902
      py      :     1.514728
      dz2     :     0.002346  d :     0.016275
      dxz     :     0.002774
      dyz     :     0.002460
      dx2y2   :     0.005551
      dxy     :     0.003143

  3 C s       :     3.034782  s :     3.034782
      pz      :     0.961335  p :     2.755635
      px      :     0.909263
      py      :     0.885037
      dz2     :     0.007252  d :     0.073098
      dxz     :     0.008601
      dyz     :     0.013816
      dx2y2   :     0.020289
      dxy     :     0.023141

  4 C s       :     3.124566  s :     3.124566
      pz      :     1.023143  p :     2.767295
      px      :     0.848662
      py      :     0.895489
      dz2     :     0.004093  d :     0.040355
      dxz     :     0.005575
      dyz     :     0.007214
      dx2y2   :     0.011236
      dxy     :     0.012238

  5 C s       :     3.133683  s :     3.133683
      pz      :     0.974932  p :     2.745891
      px      :     0.941692
      py      :     0.829268
      dz2     :     0.004069  d :     0.041135
      dxz     :     0.005453
      dyz     :     0.007499
      dx2y2   :     0.012063
      dxy     :     0.012052

  6 C s       :     3.095374  s :     3.095374
      pz      :     0.993244  p :     2.808866
      px      :     0.996044
      py      :     0.819578
      dz2     :     0.004021  d :     0.041538
      dxz     :     0.005591
      dyz     :     0.006988
      dx2y2   :     0.012818
      dxy     :     0.012120

  7 C s       :     3.259511  s :     3.259511
      pz      :     0.957034  p :     2.737343
      px      :     0.842539
      py      :     0.937771
      dz2     :     0.002625  d :     0.034345
      dxz     :     0.003111
      dyz     :     0.007107
      dx2y2   :     0.011097
      dxy     :     0.010406

  8 C s       :     3.176976  s :     3.176976
      pz      :     0.974315  p :     2.772751
      px      :     0.920402
      py      :     0.878034
      dz2     :     0.003212  d :     0.034701
      dxz     :     0.004789
      dyz     :     0.004901
      dx2y2   :     0.010386
      dxy     :     0.011413

  9 C s       :     3.175631  s :     3.175631
      pz      :     0.963985  p :     2.770524
      px      :     0.930203
      py      :     0.876337
      dz2     :     0.003493  d :     0.034987
      dxz     :     0.005399
      dyz     :     0.004325
      dx2y2   :     0.010839
      dxy     :     0.010932

 10 C s       :     3.261673  s :     3.261673
      pz      :     0.969416  p :     2.766885
      px      :     0.835430
      py      :     0.962038
      dz2     :     0.002727  d :     0.034079
      dxz     :     0.003273
      dyz     :     0.006664
      dx2y2   :     0.011611
      dxy     :     0.009804

 11 C s       :     3.262233  s :     3.262233
      pz      :     0.928113  p :     2.712687
      px      :     0.843832
      py      :     0.940742
      dz2     :     0.002741  d :     0.034988
      dxz     :     0.003289
      dyz     :     0.007437
      dx2y2   :     0.011347
      dxy     :     0.010174

 12 C s       :     3.277913  s :     3.277913
      pz      :     1.004916  p :     2.705521
      px      :     0.940276
      py      :     0.760329
      dz2     :     0.003431  d :     0.032927
      dxz     :     0.005318
      dyz     :     0.004196
      dx2y2   :     0.011889
      dxy     :     0.008093

 13 C s       :     3.315582  s :     3.315582
      pz      :     0.885006  p :     2.648379
      px      :     0.898733
      py      :     0.864640
      dz2     :     0.003776  d :     0.035423
      dxz     :     0.005667
      dyz     :     0.005176
      dx2y2   :     0.010032
      dxy     :     0.010773

 14 C s       :     3.126085  s :     3.126085
      pz      :     1.053370  p :     2.855722
      px      :     0.959501
      py      :     0.842850
      dz2     :     0.004411  d :     0.037817
      dxz     :     0.006058
      dyz     :     0.004967
      dx2y2   :     0.011481
      dxy     :     0.010900

 15 C s       :     3.084935  s :     3.084935
      pz      :     1.009479  p :     2.808633
      px      :     0.918610
      py      :     0.880544
      dz2     :     0.005721  d :     0.059460
      dxz     :     0.007876
      dyz     :     0.010642
      dx2y2   :     0.017626
      dxy     :     0.017594

 16 C s       :     3.239015  s :     3.239015
      pz      :     1.053435  p :     2.832087
      px      :     0.856412
      py      :     0.922240
      dz2     :     0.003929  d :     0.033362
      dxz     :     0.005706
      dyz     :     0.004437
      dx2y2   :     0.010454
      dxy     :     0.008836

 17 S s       :     5.861409  s :     5.861409
      pz      :     3.588579  p :     9.882338
      px      :     3.276343
      py      :     3.017416
      dz2     :     0.013482  d :     0.109196
      dxz     :     0.017173
      dyz     :     0.016599
      dx2y2   :     0.038280
      dxy     :     0.023662

 18 C s       :     3.066042  s :     3.066042
      pz      :     1.011704  p :     2.796461
      px      :     0.896854
      py      :     0.887904
      dz2     :     0.008654  d :     0.080771
      dxz     :     0.013551
      dyz     :     0.011700
      dx2y2   :     0.017793
      dxy     :     0.029074

 19 N s       :     3.364276  s :     3.364276
      pz      :     1.441498  p :     3.662252
      px      :     1.125258
      py      :     1.095496
      dz2     :     0.004409  d :     0.044099
      dxz     :     0.007212
      dyz     :     0.007312
      dx2y2   :     0.011325
      dxy     :     0.013842

 20 C s       :     3.217194  s :     3.217194
      pz      :     0.929679  p :     2.609650
      px      :     0.880844
      py      :     0.799128
      dz2     :     0.004741  d :     0.048427
      dxz     :     0.005109
      dyz     :     0.010235
      dx2y2   :     0.017640
      dxy     :     0.010702

 21 C s       :     3.151890  s :     3.151890
      pz      :     1.085876  p :     2.905235
      px      :     0.958402
      py      :     0.860957
      dz2     :     0.004115  d :     0.036382
      dxz     :     0.005006
      dyz     :     0.005432
      dx2y2   :     0.010010
      dxy     :     0.011820

 22 C s       :     3.166493  s :     3.166493
      pz      :     0.789094  p :     2.582501
      px      :     0.875361
      py      :     0.918045
      dz2     :     0.006626  d :     0.085520
      dxz     :     0.011820
      dyz     :     0.013296
      dx2y2   :     0.034906
      dxy     :     0.018871

 23 O s       :     3.741311  s :     3.741311
      pz      :     1.390542  p :     4.502373
      px      :     1.487930
      py      :     1.623901
      dz2     :     0.002233  d :     0.017213
      dxz     :     0.002863
      dyz     :     0.002893
      dx2y2   :     0.003791
      dxy     :     0.005432

 24 C s       :     3.099333  s :     3.099333
      pz      :     0.965230  p :     2.776869
      px      :     0.891911
      py      :     0.919728
      dz2     :     0.005356  d :     0.060029
      dxz     :     0.007594
      dyz     :     0.011830
      dx2y2   :     0.016809
      dxy     :     0.018440

 25 C s       :     3.066459  s :     3.066459
      pz      :     0.981313  p :     2.865967
      px      :     0.939495
      py      :     0.945158
      dz2     :     0.006793  d :     0.040935
      dxz     :     0.008376
      dyz     :     0.006146
      dx2y2   :     0.011240
      dxy     :     0.008382

 26 C s       :     3.256775  s :     3.256775
      pz      :     0.964047  p :     2.718639
      px      :     0.867831
      py      :     0.886761
      dz2     :     0.005636  d :     0.034142
      dxz     :     0.007061
      dyz     :     0.004780
      dx2y2   :     0.007265
      dxy     :     0.009399

 27 C s       :     3.182240  s :     3.182240
      pz      :     0.927443  p :     2.777281
      px      :     0.940495
      py      :     0.909344
      dz2     :     0.003982  d :     0.034657
      dxz     :     0.007360
      dyz     :     0.005201
      dx2y2   :     0.009067
      dxy     :     0.009046

 28 C s       :     3.180995  s :     3.180995
      pz      :     0.951214  p :     2.772128
      px      :     0.860793
      py      :     0.960120
      dz2     :     0.005534  d :     0.034666
      dxz     :     0.006111
      dyz     :     0.006004
      dx2y2   :     0.009405
      dxy     :     0.007612

 29 C s       :     3.182839  s :     3.182839
      pz      :     0.958996  p :     2.784504
      px      :     0.921765
      py      :     0.903743
      dz2     :     0.005598  d :     0.034633
      dxz     :     0.007416
      dyz     :     0.004781
      dx2y2   :     0.007610
      dxy     :     0.009229

 30 C s       :     3.236636  s :     3.236636
      pz      :     0.894496  p :     2.747018
      px      :     0.935685
      py      :     0.916837
      dz2     :     0.004035  d :     0.034208
      dxz     :     0.007600
      dyz     :     0.005089
      dx2y2   :     0.008410
      dxy     :     0.009073

 31 N s       :     3.597628  s :     3.597628
      pz      :     1.208337  p :     3.493280
      px      :     0.896714
      py      :     1.388229
      dz2     :     0.004757  d :     0.036875
      dxz     :     0.006483
      dyz     :     0.005799
      dx2y2   :     0.011923
      dxy     :     0.007914

 32 N s       :     3.508107  s :     3.508107
      pz      :     1.182153  p :     3.591462
      px      :     1.058887
      py      :     1.350422
      dz2     :     0.004032  d :     0.029131
      dxz     :     0.005604
      dyz     :     0.004169
      dx2y2   :     0.009116
      dxy     :     0.006210

 33 H s       :     0.977004  s :     0.977004
      pz      :     0.005711  p :     0.023076
      px      :     0.014013
      py      :     0.003353

 34 H s       :     0.968194  s :     0.968194
      pz      :     0.004715  p :     0.022892
      px      :     0.006671
      py      :     0.011506

 35 H s       :     0.968058  s :     0.968058
      pz      :     0.004389  p :     0.022880
      px      :     0.005268
      py      :     0.013223

 36 H s       :     0.976469  s :     0.976469
      pz      :     0.005848  p :     0.023448
      px      :     0.013888
      py      :     0.003712

 37 H s       :     0.964487  s :     0.964487
      pz      :     0.005542  p :     0.023087
      px      :     0.014239
      py      :     0.003306

 38 H s       :     0.970214  s :     0.970214
      pz      :     0.004498  p :     0.023206
      px      :     0.005219
      py      :     0.013490

 39 H s       :     0.964291  s :     0.964291
      pz      :     0.004208  p :     0.023962
      px      :     0.007123
      py      :     0.012631

 40 H s       :     0.924353  s :     0.924353
      pz      :     0.004837  p :     0.025241
      px      :     0.004585
      py      :     0.015818

 41 H s       :     0.923907  s :     0.923907
      pz      :     0.005515  p :     0.023783
      px      :     0.014133
      py      :     0.004135

 42 H s       :     0.973270  s :     0.973270
      pz      :     0.004627  p :     0.019659
      px      :     0.011282
      py      :     0.003750

 43 H s       :     0.982995  s :     0.982995
      pz      :     0.005192  p :     0.023098
      px      :     0.007963
      py      :     0.009943

 44 H s       :     0.967978  s :     0.967978
      pz      :     0.009002  p :     0.022895
      px      :     0.004642
      py      :     0.009251

 45 H s       :     0.966416  s :     0.966416
      pz      :     0.005184  p :     0.022836
      px      :     0.014054
      py      :     0.003598

 46 H s       :     0.967626  s :     0.967626
      pz      :     0.005172  p :     0.022907
      px      :     0.007850
      py      :     0.009885

 47 H s       :     0.970229  s :     0.970229
      pz      :     0.009613  p :     0.023294
      px      :     0.004544
      py      :     0.009138



                     *******************************
                     * LOEWDIN POPULATION ANALYSIS *
                     *******************************

----------------------
LOEWDIN ATOMIC CHARGES
----------------------
   0 O :   -0.209664
   1 C :    0.100282
   2 O :   -0.027788
   3 C :    0.077489
   4 C :   -0.059148
   5 C :   -0.006141
   6 C :   -0.029011
   7 C :   -0.011116
   8 C :   -0.028439
   9 C :   -0.016414
  10 C :   -0.022773
  11 C :    0.016399
  12 C :   -0.039429
  13 C :    0.053762
  14 C :   -0.087299
  15 C :   -0.028038
  16 C :   -0.183970
  17 S :    0.451825
  18 C :   -0.099257
  19 N :    0.104362
  20 C :    0.079583
  21 C :   -0.135232
  22 C :    0.116075
  23 O :   -0.199332
  24 C :    0.003290
  25 C :   -0.042274
  26 C :   -0.011054
  27 C :   -0.024640
  28 C :   -0.020614
  29 C :   -0.024750
  30 C :   -0.018290
  31 N :   -0.117326
  32 N :   -0.129755
  33 H :    0.039088
  34 H :    0.038178
  35 H :    0.038933
  36 H :    0.038006
  37 H :    0.045520
  38 H :    0.047552
  39 H :    0.041118
  40 H :    0.037347
  41 H :    0.050498
  42 H :    0.008560
  43 H :    0.033874
  44 H :    0.037922
  45 H :    0.037416
  46 H :    0.038254
  47 H :    0.036418

-------------------------------
LOEWDIN REDUCED ORBITAL CHARGES
-------------------------------
  0 O s       :     3.539931  s :     3.539931
      pz      :     1.468542  p :     4.639643
      px      :     1.664511
      py      :     1.506590
      dz2     :     0.004241  d :     0.030090
      dxz     :     0.001107
      dyz     :     0.006399
      dx2y2   :     0.009349
      dxy     :     0.008993

  1 C s       :     2.843315  s :     2.843315
      pz      :     0.849269  p :     2.770455
      px      :     0.868637
      py      :     1.052550
      dz2     :     0.020662  d :     0.285948
      dxz     :     0.035341
      dyz     :     0.045081
      dx2y2   :     0.103433
      dxy     :     0.081431

  2 O s       :     3.423919  s :     3.423919
      pz      :     1.622272  p :     4.571535
      px      :     1.400591
      py      :     1.548673
      dz2     :     0.004167  d :     0.032334
      dxz     :     0.005680
      dyz     :     0.003793
      dx2y2   :     0.011575
      dxy     :     0.007119

  3 C s       :     2.838638  s :     2.838638
      pz      :     0.966902  p :     2.913256
      px      :     1.012581
      py      :     0.933773
      dz2     :     0.015363  d :     0.170617
      dxz     :     0.018257
      dyz     :     0.029274
      dx2y2   :     0.052375
      dxy     :     0.055350

  4 C s       :     2.838843  s :     2.838843
      pz      :     1.026234  p :     3.111958
      px      :     1.040483
      py      :     1.045241
      dz2     :     0.009390  d :     0.108347
      dxz     :     0.012871
      dyz     :     0.016064
      dx2y2   :     0.033943
      dxy     :     0.036079

  5 C s       :     2.844461  s :     2.844461
      pz      :     0.976589  p :     3.054148
      px      :     1.037992
      py      :     1.039566
      dz2     :     0.009023  d :     0.107532
      dxz     :     0.012608
      dyz     :     0.016613
      dx2y2   :     0.034752
      dxy     :     0.034535

  6 C s       :     2.844963  s :     2.844963
      pz      :     0.985408  p :     3.076050
      px      :     1.043619
      py      :     1.047022
      dz2     :     0.009044  d :     0.107998
      dxz     :     0.013071
      dyz     :     0.015356
      dx2y2   :     0.035898
      dxy     :     0.034629

  7 C s       :     2.864508  s :     2.864508
      pz      :     0.969243  p :     3.057249
      px      :     1.031206
      py      :     1.056799
      dz2     :     0.006121  d :     0.089360
      dxz     :     0.006597
      dyz     :     0.015991
      dx2y2   :     0.031445
      dxy     :     0.029206

  8 C s       :     2.864239  s :     2.864239
      pz      :     0.976007  p :     3.074309
      px      :     1.042595
      py      :     1.055706
      dz2     :     0.007398  d :     0.089891
      dxz     :     0.011329
      dyz     :     0.010699
      dx2y2   :     0.029242
      dxy     :     0.031223

  9 C s       :     2.865095  s :     2.865095
      pz      :     0.964344  p :     3.061136
      px      :     1.045250
      py      :     1.051542
      dz2     :     0.007898  d :     0.090182
      dxz     :     0.012891
      dyz     :     0.009338
      dx2y2   :     0.030095
      dxy     :     0.029961

 10 C s       :     2.860420  s :     2.860420
      pz      :     0.984749  p :     3.073519
      px      :     1.037223
      py      :     1.051546
      dz2     :     0.006273  d :     0.088834
      dxz     :     0.006975
      dyz     :     0.015129
      dx2y2   :     0.032490
      dxy     :     0.027968

 11 C s       :     2.864848  s :     2.864848
      pz      :     0.942051  p :     3.028730
      px      :     1.033342
      py      :     1.053337
      dz2     :     0.006244  d :     0.090023
      dxz     :     0.006945
      dyz     :     0.016600
      dx2y2   :     0.031946
      dxy     :     0.028288

 12 C s       :     2.862793  s :     2.862793
[...]
      py      :     0.037654

 40 H s       :     0.881153  s :     0.881153
      pz      :     0.016812  p :     0.081500
      px      :     0.016687
      py      :     0.048000

 41 H s       :     0.875547  s :     0.875547
      pz      :     0.016862  p :     0.073955
      px      :     0.042377
      py      :     0.014716

 42 H s       :     0.926116  s :     0.926116
      pz      :     0.015259  p :     0.065324
      px      :     0.037648
      py      :     0.012417

 43 H s       :     0.897146  s :     0.897146
      pz      :     0.016048  p :     0.068980
      px      :     0.023759
      py      :     0.029173

 44 H s       :     0.894724  s :     0.894724
      pz      :     0.026166  p :     0.067353
      px      :     0.014340
      py      :     0.026847

 45 H s       :     0.895094  s :     0.895094
      pz      :     0.015943  p :     0.067490
      px      :     0.039792
      py      :     0.011756

 46 H s       :     0.894323  s :     0.894323
      pz      :     0.015889  p :     0.067423
      px      :     0.022950
      py      :     0.028584

 47 H s       :     0.894399  s :     0.894399
      pz      :     0.027936  p :     0.069183
      px      :     0.014269
      py      :     0.026978



                      *****************************
                      * MAYER POPULATION ANALYSIS *
                      *****************************

  NA   - Mulliken gross atomic population
  ZA   - Total nuclear charge
  QA   - Mulliken gross atomic charge
  VA   - Mayer's total valence
  BVA  - Mayer's bonded valence
  FA   - Mayer's free valence

  ATOM       NA         ZA         QA         VA         BVA        FA
  0 O      8.2342     8.0000    -0.2342     2.2999     2.2999    -0.0000
  1 C      5.7887     6.0000     0.2113     4.2559     4.2559    -0.0000
  2 O      8.2324     8.0000    -0.2324     2.2771     2.2771    -0.0000
  3 C      5.8635     6.0000     0.1365     3.8450     3.8450     0.0000
  4 C      5.9322     6.0000     0.0678     3.7060     3.7060    -0.0000
  5 C      5.9207     6.0000     0.0793     3.7581     3.7581    -0.0000
  6 C      5.9458     6.0000     0.0542     3.7419     3.7419    -0.0000
  7 C      6.0312     6.0000    -0.0312     3.7951     3.7951     0.0000
  8 C      5.9844     6.0000     0.0156     3.7880     3.7880     0.0000
  9 C      5.9811     6.0000     0.0189     3.8106     3.8106    -0.0000
 10 C      6.0626     6.0000    -0.0626     3.8071     3.8071     0.0000
 11 C      6.0099     6.0000    -0.0099     3.7388     3.7388    -0.0000
 12 C      6.0164     6.0000    -0.0164     3.7862     3.7862     0.0000
 13 C      5.9994     6.0000     0.0006     3.7762     3.7762    -0.0000
 14 C      6.0196     6.0000    -0.0196     3.6509     3.6509     0.0000
 15 C      5.9530     6.0000     0.0470     4.1063     4.1063     0.0000
 16 C      6.1045     6.0000    -0.1045     3.7399     3.7399    -0.0000
 17 S     15.8529    16.0000     0.1471     2.5139     2.5139     0.0000
 18 C      5.9433     6.0000     0.0567     3.9893     3.9893     0.0000
 19 N      7.0706     7.0000    -0.0706     3.4432     3.4432     0.0000
 20 C      5.8753     6.0000     0.1247     3.7935     3.7935    -0.0000
 21 C      6.0935     6.0000    -0.0935     3.6346     3.6346     0.0000
 22 C      5.8345     6.0000     0.1655     4.1092     4.1092     0.0000
 23 O      8.2609     8.0000    -0.2609     2.2203     2.2203    -0.0000
 24 C      5.9362     6.0000     0.0638     3.9163     3.9163     0.0000
 25 C      5.9734     6.0000     0.0266     3.7961     3.7961    -0.0000
 26 C      6.0096     6.0000    -0.0096     3.8334     3.8334    -0.0000
 27 C      5.9942     6.0000     0.0058     3.8123     3.8123    -0.0000
 28 C      5.9878     6.0000     0.0122     3.8113     3.8113    -0.0000
 29 C      6.0020     6.0000    -0.0020     3.8460     3.8460     0.0000
 30 C      6.0179     6.0000    -0.0179     3.8338     3.8338     0.0000
 31 N      7.1278     7.0000    -0.1278     2.9165     2.9165     0.0000
 32 N      7.1287     7.0000    -0.1287     3.1567     3.1567     0.0000
 33 H      1.0001     1.0000    -0.0001     0.9860     0.9860     0.0000
 34 H      0.9911     1.0000     0.0089     0.9793     0.9793     0.0000
 35 H      0.9909     1.0000     0.0091     0.9791     0.9791    -0.0000
 36 H      0.9999     1.0000     0.0001     0.9844     0.9844     0.0000
 37 H      0.9876     1.0000     0.0124     0.9871     0.9871     0.0000
 38 H      0.9934     1.0000     0.0066     0.9945     0.9945     0.0000
 39 H      0.9883     1.0000     0.0117     1.0304     1.0304    -0.0000
 40 H      0.9496     1.0000     0.0504     1.0430     1.0430    -0.0000
 41 H      0.9477     1.0000     0.0523     1.0216     1.0216    -0.0000
 42 H      0.9929     1.0000     0.0071     0.9940     0.9940    -0.0000
 43 H      1.0061     1.0000    -0.0061     1.0003     1.0003    -0.0000
 44 H      0.9909     1.0000     0.0091     0.9793     0.9793    -0.0000
 45 H      0.9893     1.0000     0.0107     0.9790     0.9790    -0.0000
 46 H      0.9905     1.0000     0.0095     0.9792     0.9792     0.0000
 47 H      0.9935     1.0000     0.0065     0.9890     0.9890     0.0000

  Mayer bond orders larger than 0.100000
B(  0-O ,  1-C ) :   2.0869 B(  1-C ,  2-O ) :   1.0629 B(  1-C , 14-C ) :   1.0194 
B(  2-O ,  3-C ) :   1.0878 B(  3-C ,  4-C ) :   1.3314 B(  3-C , 12-C ) :   1.2538 
B(  4-C ,  5-C ) :   1.1415 B(  4-C , 13-C ) :   1.1552 B(  5-C ,  6-C ) :   1.2489 
B(  5-C , 10-C ) :   1.2849 B(  6-C ,  7-C ) :   1.2521 B(  6-C , 11-C ) :   1.1974 
B(  7-C ,  8-C ) :   1.4536 B(  7-C , 33-H ) :   0.9953 B(  8-C ,  9-C ) :   1.2674 
B(  8-C , 34-H ) :   0.9884 B(  9-C , 10-C ) :   1.4573 B(  9-C , 35-H ) :   0.9831 
B( 10-C , 36-H ) :   0.9877 B( 11-C , 12-C ) :   1.4390 B( 11-C , 37-H ) :   0.9953 
B( 12-C , 38-H ) :   0.9962 B( 13-C , 14-C ) :   1.5374 B( 13-C , 39-H ) :   0.9692 
B( 14-C , 15-C ) :   1.0534 B( 15-C , 16-C ) :   1.5554 B( 15-C , 32-N ) :   1.3123 
B( 16-C , 17-S ) :   1.1113 B( 16-C , 40-H ) :   0.9395 B( 17-S , 18-C ) :   1.1388 
B( 17-S , 32-N ) :   0.1006 B( 18-C , 19-N ) :   1.0051 B( 18-C , 32-N ) :   1.6578 
B( 19-N , 20-C ) :   1.2152 B( 19-N , 31-N ) :   1.0820 B( 20-C , 21-C ) :   1.3660 
B( 20-C , 41-H ) :   0.9884 B( 21-C , 22-C ) :   1.0278 B( 21-C , 24-C ) :   1.2130 
B( 22-C , 23-O ) :   2.1024 B( 22-C , 42-H ) :   0.9496 B( 24-C , 25-C ) :   1.0090 
B( 24-C , 31-N ) :   1.5999 B( 25-C , 26-C ) :   1.3631 B( 25-C , 30-C ) :   1.3603 
B( 26-C , 27-C ) :   1.3694 B( 26-C , 43-H ) :   0.9946 B( 27-C , 28-C ) :   1.3649 
B( 27-C , 44-H ) :   0.9886 B( 28-C , 29-C ) :   1.3764 B( 28-C , 45-H ) :   0.9910 
B( 29-C , 30-C ) :   1.3794 B( 29-C , 46-H ) :   0.9877 B( 30-C , 47-H ) :   0.9890 


-------
TIMINGS
-------

Total SCF time: 0 days 0 hours 0 min 57 sec 

Total time                  ....      57.103 sec
Sum of individual times     ....      54.995 sec  ( 96.3%)

SCF preparation             ....       0.737 sec  (  1.3%)
Fock matrix formation       ....      51.361 sec  ( 89.9%)
  Startup                   ....       0.058 sec  (  0.1% of F)
  Split-RI-J                ....       5.261 sec  ( 10.2% of F)
  Chain of spheres X        ....      33.180 sec  ( 64.6% of F)
  XC integration            ....       5.737 sec  ( 11.2% of F)
    Basis function eval.    ....       1.782 sec  ( 31.1% of XC)
    Density eval.           ....       1.239 sec  ( 21.6% of XC)
    XC-Functional eval.     ....       0.150 sec  (  2.6% of XC)
    XC-Potential eval.      ....       1.307 sec  ( 22.8% of XC)
  CPCM terms                ....       8.524 sec  ( 16.6% of F)
Diagonalization             ....       0.000 sec  (  0.0%)
Density matrix formation    ....       0.465 sec  (  0.8%)
Total Energy calculation    ....       0.189 sec  (  0.3%)
Population analysis         ....       0.123 sec  (  0.2%)
Orbital Transformation      ....       0.150 sec  (  0.3%)
Orbital Orthonormalization  ....       0.000 sec  (  0.0%)
DIIS solution               ....       0.791 sec  (  1.4%)
SOSCF solution              ....       1.179 sec  (  2.1%)
Finished LeanSCF after  57.4 sec

Maximum memory used throughout the entire LEANSCF-calculation: 59.8 MB


-------------------------------------------------------------------------------
                          DFT DISPERSION CORRECTION                            
                                                                               
                              DFTD3 V3.1  Rev 1                                
                          USING Becke-Johnson damping                          
-------------------------------------------------------------------------------
The B3LYP functional is recognized
Active option DFTDOPT                   ...         4   

molecular C6(AA) [au] = 36013.696637 


            DFT-D V3
 parameters
 s6 scaling factor         :     1.0000 
 a1 scaling factor         :     0.3981 
 s8 scaling factor         :     1.9889 
 a2 scaling factor         :     4.4211 
 ad hoc parameters k1-k3   :    16.0000     1.3333    -4.0000 

 Edisp/kcal,au: -76.650259394896  -0.122149950537 
 E6   /kcal   : -35.013730179 
 E8   /kcal   : -41.636529216 
 % E8         :  54.320141308 

-------------------------   ----------------
Dispersion correction           -0.122149951
-------------------------   ----------------


-------------------------   --------------------
FINAL SINGLE POINT ENERGY     -1786.095197901316
-------------------------   --------------------



           ************************************************************
           *        Program running with 8 parallel MPI-processes     *
           *              working on a common directory               *
           ************************************************************

------------------------------------------------------------------------------
                              ORCA PROPERTY CALCULATIONS
------------------------------------------------------------------------------

GBWName                                 ... input\CMR_GOLD_020_sp.gbw
Number of atoms                         ...     48
Number of basis functions               ...    541
Max core memory                         ...   3000 MB

Electric properties:
Dipole moment                           ... YES
Quadrupole moment                       ...  NO
Static polarizability (Dipole/Dipole)   ...  NO
Static polarizability (Dipole/Quad.)    ...  NO
Static polarizability (Quad./Quad.)     ...  NO
Static polarizability (Velocity)        ...  NO
Static hyperpolarizability              ...  NO

Atomic electric properties:
Dipole moment                           ...  NO
Quadrupole moment                       ...  NO
Static polarizability                   ...  NO

Choice of electric origin               ... Center of mass
Position of electric origin             ...    -0.004509     0.776661     0.242945

General magnetic properties:
Magnetizability                         ...  NO

EPR properties:
g-Tensor (aka g-matrix)                 ...  NO
Zero-Field splitting spin-orbit         ...  NO
Zero-field splitting spin-spin          ...  NO
Hyperfine couplings                     ...  NO (   0 nuclei)
Quadrupole couplings                    ...  NO (   0 nuclei)
Contact density                         ...  NO (   0 nuclei)

NMR properties:
Chemical shifts                         ...  NO (   0 nuclei)
Spin-rotation constants                 ...  NO (   0 nuclei)
Spin-spin couplings                     ...  NO (   0 nuclei,    0 pairs)

Choice of magnetic origin               ... GIAO
Position of magnetic origin             ...     0.000000     0.000000     0.000000

Properties with geometric perturbations:
SCF Hessian                             ...  NO
IR spectrum                             ...  NO
VCD spectrum                            ...  NO
X-ray spectroscopy properties:
SCF XES/XAS/RIXS spectra                ...  NO

SCF SOC stabilization energy            ...  NO
Diagonal Born-Oppenheimer correction    ...  NO

-------------
DIPOLE MOMENT
-------------

Method             : SCF
Type of density    : Electron Density
Multiplicity       :   1
Irrep              :   0
Energy             : -1785.9730479507784366 Eh
Basis              : AO
                                X                 Y                 Z
Electronic contribution:     -3.336016398      13.957977626      -1.028458607
Nuclear contribution   :      2.884416940     -14.944303281       0.872640911
                        -----------------------------------------
Total Dipole Moment    :     -0.451599458      -0.986325656      -0.155817695
                        -----------------------------------------
Magnitude (a.u.)       :      1.095928612
Magnitude (Debye)      :      2.785629155



--------------------
Rotational spectrum 
--------------------
 
Rotational constants in cm-1:             0.008229             0.001659             0.001387 
Rotational constants in MHz :           246.708825            49.736594            41.594901 

Dipole components along the rotational axes: 
x,y,z [a.u.] :    -0.318861    -1.047993    -0.033131 
x,y,z [Debye]:    -0.810480    -2.663787    -0.084213 

 

Dipole moment calculation done in   0.0 sec 

Maximum memory used throughout the entire PROP-calculation: 28.8 MB

--------------------------------
SUGGESTED CITATIONS FOR THIS RUN
--------------------------------

Below you find a list of papers that are relevant to this ORCA run
We neither can nor want to force you to cite these papers, but we appreciate if you do
You receive ORCA, which is the product of decades of hard work by many enthusiastic individuals, for free
The only thing we kindly ask in return is that you cite our papers,
We deeply appreciate it, if you show your appreciation for ORCA by not just citing the generic ORCA reference.

Please note that relegating all ORCA citations to the supporting information does *not* help us.
SI sections are not indexed - citations you put there will not count into any citation statistics
But we need these citations in order to attract the funding resources that allow us to do what we are doing

Therefore, if you are a happy ORCA user, please consider citing a few of the papers listed below in the main body of your paper

In addition to the list printed below, the program has created the file input\CMR_GOLD_020_sp.bibtex that contains the list in bibtex format
You can import this file easily into all common literature databanks and citation aid programs

It goes without saying that in many instances, there are alternative algorithms to achieve similar
results as the ones you have gotten from ORCA. It is, of course, also the case that in some instances
ORCA just re-implements algorithms worked out by others. We are fully aware of that and we are also
fully appreciative of our colleagues work. Hence this citation list should not be read as indicating
that the listed papers, which are focused on our own work, are the only ones worth citing. It simply
meant to make it easier for users to cite ORCA specific papers. It is not a substitute for doing your
own literature research and citing the relevant literature in a scientifically appropriate manner.

List of essential papers. We consider these as the minimum necessary citations

  1. Neese, F.
     Software update: the ORCA program system, version 6.0
     WIRES Comput. Molec. Sci. 2025 15(1), e70019
     doi.org/10.1002/wcms.70019

List of papers to cite with high priority. The work reported in these papers was absolutely
necessary for this run to complete.
Our perspective: the developers of density functionals and basis sets usually get cited in chemistry papers
Good! But without the algorithms to do something with them, the functionals or basis sets would not do anything.
Hence, in our opinion, the algorithm design and method developments papers are equally worthy of getting cited

  1. Neese, F.
     An improvement of the resolution of the identity approximation for the formation of the Coulomb matrix
     J. Comp. Chem. 2003 24(14), 1740-1747
     doi.org/10.1002/jcc.10318
  2. Neese, F.; Wennmohs, F.; Hansen, A.; Becker, U.
     Efficient, approximate and parallel Hartree-Fock and hybrid DFT calculations. A 'chain-of-spheres' algorithm for the Hartree-Fock exchange
     Chem. Phys. 2009 356(1-3), 98-109
     doi.org/10.1016/j.chemphys.2008.10.036
  3. Grimme, S.; Antony, J.; Ehrlich, S.; Krieg, H.
     A consistent and accurate ab initio parametrization of density functional dispersion correction (DFT-D) for the 94 elements H-Pu
     J. Chem. Phys. 2010 132 , 154104
     doi.org/10.1063/1.3382344
  4. Grimme, S.; Ehrlich, S.; Goerigk, L.
     Effect of the damping function in dispersion corrected density functional theory
     J. Comput. Chem. 2011 32(7), 1456-1465
     doi.org/10.1002/jcc.21759
  5. Garcia-Rates, M.; Neese, F.
     Effect of the Solute Cavity on the Solvation Energy and its Derivatives within the Framework of the Gaussian Charge Scheme
     J. Comput. Chem. 2020 41 , 922-939
     doi.org/10.1002/jcc.26139
  6. Helmich-Paris, B.; de Souza, B.; Neese, F.; Izsák, R.
     An improved chain of spheres for exchange algorithm
     J. Chem. Phys. 2021 155(10), 104109
     doi.org/10.1063/5.0058766
  7. Neese, F.
     The SHARK Integral Generation and Digestion System
     J. Comp. Chem. 2022 44(3), 381
     doi.org/10.1002/jcc.26942

List of suggested additional citations. These are papers that are important in the 'surrounding' of 
of this run, or papers that preceded the highly important papers. If you like your results we are grateful for a citation.

  1. Izsak, R.; Neese, F.
     An overlap fitted chain of spheres exchange method
     J. Chem. Phys. 2011 135 , 144105
     doi.org/10.1063/1.3646921
  2. Izsak, R.; Hansen, A.; Neese, F.
     The resolution of identity and chain of spheres approximations for the LPNO-CCSD singles Fock term
     Molec. Phys. 2012 110 , 2413-2417
     doi.org/10.1080/00268976.2012.687466
  3. Neese, F.
     The ORCA program system
     WIRES Comput. Molec. Sci. 2012 2(1), 73-78
     doi.org/10.1002/wcms.81
  4. Izsak, R.; Neese, F.; Klopper, W.
     Robust fitting techniques in the chain of spheres approximation to the Fock exchange: The role of the complementary space
     J. Chem. Phys. 2013 139 , 
     doi.org/10.1063/1.4819264
  5. Neese, F.
     Software update: the ORCA program system, version 4.0
     WIRES Comput. Molec. Sci. 2018 8(1), 1-6
     doi.org/10.1002/wcms.1327
  6. Neese, F.; Wennmohs, F.; Becker, U.; Riplinger, C.
     The ORCA quantum chemistry program package
     J. Chem. Phys. 2020 152(22), 224108
     doi.org/10.1063/5.0004608
  7. Neese, F.
     Software update: The ORCA program system—Version 5.0
     WIRES Comput. Molec. Sci. 2022 12(1), e1606
     doi.org/10.1002/wcms.1606

List of optional additional citations

  1. Neese, F.
     Approximate second-order SCF convergence for spin unrestricted wavefunctions
     Chem. Phys. Lett. 2000 325(1-3), 93-98
     doi.org/10.1016/s0009-2614(00)00662-x

Timings for individual modules:

Sum of individual times          ...       60.653 sec (=   1.011 min)
Startup calculation              ...        2.057 sec (=   0.034 min)   3.4 %
SCF iterations                   ...       58.394 sec (=   0.973 min)  96.3 %
Property calculations            ...        0.202 sec (=   0.003 min)   0.3 %
                             ****ORCA TERMINATED NORMALLY****
TOTAL RUN TIME: 0 days 0 hours 1 minutes 1 seconds 94 msec
