
                                 *****************
                                 * O   R   C   A *
                                 *****************

                                            #,                                       
                                            ###                                      
                                            ####                                     
                                            #####                                    
                                            ######                                   
                                           ########,                                 
                                     ,,################,,,,,                         
                               ,,#################################,,                 
                          ,,##########################################,,             
                       ,#########################################, ''#####,          
                    ,#############################################,,   '####,        
                  ,##################################################,,,,####,       
                ,###########''''           ''''###############################       
              ,#####''   ,,,,##########,,,,          '''####'''          '####       
            ,##' ,,,,###########################,,,                        '##       
           ' ,,###''''                  '''############,,,                           
         ,,##''                                '''############,,,,        ,,,,,,###''
      ,#''                                            '''#######################'''  
     '                                                          ''''####''''         
             ,#######,   #######,   ,#######,      ##                                
            ,#'     '#,  ##    ##  ,#'     '#,    #''#        ,####,    ,#,          
            ##       ##  ##   ,#'  ##            #'  '#       #'       ,# #          
            ##       ##  #######   ##           ,######,      #####,      #          
            '#,     ,#'  ##    ##  '#,     ,#' ,#      #,     #,   #      #          
             '#######'   ##     ##  '#######'  #'      '#     '####' #    #          



                #########################################################
                #                        -***-                          #
                #          Department of theory and spectroscopy        #
                #                                                       #
                #                      Frank Neese                      #
                #                                                       #
                #     Directorship, Architecture, Infrastructure        #
                #                    SHARK, DRIVERS                     #
                #        Core code/Algorithms in most modules           #
                #                                                       #
                #        Max Planck Institute fuer Kohlenforschung      #
                #                Kaiser Wilhelm Platz 1                 #
                #                 D-45470 Muelheim/Ruhr                 #
                #                      Germany                          #
                #                                                       #
                #                  All rights reserved                  #
                #                        -***-                          #
                #########################################################


                         Program Version 6.1.1  -  RELEASE   -


 With contributions from (in alphabetic order):
[Max-Planck-Institut fuer Kohlenforschung]                               
  Daniel Aravena         : Magnetic Suceptibility                        
  Michael Atanasov       : Ab Initio Ligand Field Theory (pilot matlab implementation)
  Alexander A. Auer      : GIAO ZORA, VPT2 properties, NMR spectrum      
  Ute Becker             : All parallelization in ORCA, NUMFREQ, NUMCALC 
  Giovanni Bistoni       : ED, misc. LED, open-shell LED, HFLD           
  Dmytro Bykov           : pre 5.0 version of the SCF Hessian            
  Marcos Casanova-Páez   : Triplet and SCS-CIS(D). UHF-(DLPNO)-IP/EA/STEOM-CCSD. UHF-CVS-IP/STEOM-CCSD   
  Vijay G. Chilkuri      : MRCI spin determinant printing, contributions to CSF-ICE 
  Pauline Colinet        : FMM embedding                                 
  Dipayan Datta          : RHF DLPNO-CCSD density                        
  Achintya Kumar Dutta   : EOM-CC, STEOM-CC                              
  Nicolas Foglia         : Exact transition moments, OPA infrastructure, MCD improvements    
  Dmitry Ganyushin       : Spin-Orbit,Spin-Spin,Magnetic field MRCI      
  Miquel Garcia-Rates    : C-PCM and meta-GGA Hessian, CCSD/C-PCM, Gaussian charge scheme 
  Tiago L. C. Gouveia    : GS-ROHF, GS-ROCIS                             
  Yang Guo               : DLPNO-NEVPT2, F12-NEVPT2, CIM, IAO-localization        
  Andreas Hansen         : Spin unrestricted coupled pair/coupled cluster methods 
  Ingolf Harden          : AUTO-CI MPn and infrastructure                
  Benjamin Helmich-Paris : MC-RPA, TRAH-(SCF,CASSCF), AVAS, COSX integrals, SCF dyn. polar., MC-PDFT, srDFT 
  Lee Huntington         : MR-EOM, pCC                                   
  Robert Izsak           : Overlap fitted RIJCOSX, COSX-SCS-MP3, EOM     
  Riya Kayal             : Wick's Theorem for AUTO-CI, AUTO-CI UHF-CCSDT 
  Emily Kempfer          : AUTO-CI RHF CISDT and CCSDT, approximate NEVPT4
  Christian Kollmar      : KDIIS, OOCD, Brueckner-CCSD(T), CCSD density, CASPT2, CASPT2-K, improved NEVPT2 
  Axel Koslowski         : Symmetry handling                             
  Simone Kossmann        : meta-GGA functionals, TD-DFT gradient, OOMP2, (MP2 Hessian; deprecated post 5.0) 
  Lucas Lang             : DCDCAS, Hyperfine gauge corrections, ICE-SOC+SSC
  Marvin Lechner         : AUTO-CI (C++ implementation), FIC-MRCC        
  Spencer Leger          : CASSCF response                               
  Dagmar Lenk            : GEPOL surface, SMD, ORCA-2-JSON               
  Dimitrios Liakos       : Extrapolation schemes; Compound Job, Property file
  Dimitrios Manganas     : Further ROCIS development; embedding schemes. LFT, Crystal Embedding 
  Dimitrios Pantazis     : SARC Basis sets                               
  Anastasios Papadopoulos: AUTO-CI, single reference methods and gradients 
  Taras Petrenko         : pre 6.0 DFT Hessian and TD-DFT gradient,  ECA, NRVS 
  Petra Pikulova         : Analytic Raman intensities                    
  Peter Pinski           : DLPNO-MP2, DLPNO-MP2 Gradient                 
  Shashank Vittal Rao    : ES-AILFT, MagRelax                            
  Christoph Reimann      : Effective Core Potentials                     
  Marius Retegan         : Local ZFS, SOC                                
  Christoph Riplinger    : Optimizer, TS searches, QM/MM, DLPNO-CCSD(T), (RO)-DLPNO pert. Triples 
  Michael Roemelt        : Original ROCIS implementation, recursive CI coupling coefficients
  Masaaki Saitow         : Open-shell DLPNO-CCSD energy and density      
  Barbara Sandhoefer     : DKH picture change effects                    
  Yorick L. A. Schmerwitz: GMF and freeze-and-release deltaSCF, NEB S-IDPP initial path                    
  Kantharuban Sivalingam : CASSCF convergence/infrastructure, NEVPT2, NEVPT3, NEVPT4(SD), FIC-MRCI and CEPA variants
  Bernardo de Souza      : ESD, SOC TD-DFT                               
  Georgi L. Stoychev     : AutoAux, RI-MP2 NMR, DLPNO-MP2 response, X2C  
  Van Anh Tran           : RI-MP2 g-tensors                              
  Willem Van den Heuvel  : Paramagnetic NMR                              
  Zikuan Wang            : NOTCH, Electric field optimization            
  Frank Wennmohs         : Technical directorship and infrastructure     
  Hang Xu                : AUTO-CI-Response properties                   
                                                                         
[FACCTs GmbH]                                                            
  Markus Bursch, Nicolas Foglia, Miquel Garcia-Rates, Ingolf Harden, Hagen Neugebauer, Anastasios Papadopoulos, 
  Christoph Riplinger, Bernardo de Souza, Georgi L. Stoychev                                                    
                                                                 
  APM, various basis sets, CI-OPT, improved COSX, DLPNO-Multilevel,           
  DOCKER, DRACO, updates on ESD, Fragmentator, GOAT, IRC, LR-CPCM, L-BFGS, MBIS, meta-GGA TD-DFT gradient, ML-optimized integration grids, 
  MM, NACMEs, nearIR, NEB, NEB-TS, NL-DFT gradient (VV10), 2- and 3-layer-ONIOM, interface openCOSMO-RS, QMMM,   
  Crystal-QMMM, RESP, rigid body optimization, SF, symmetry and pop. for TD-DFT, various functionals, SOLVATOR                                   
                                                                         
[Other institutions]                                                     
  V. Asgeirsson          : NEB                                           
  Christoph Bannwarth    : sTDA-DFT, sTD-DFT, PBEh-3c, B97-3c, D3        
  Giovanni Bistoni       : ETS/NOCV, ADLD/ADEX, COVALED                  
  Martin Brehm           : Molecular dynamics                            
  Ronald Cardenas        : ETS/NOCV                                      
  Martina Colucci        : COVALED                                       
  Sebastian Ehlert       : rSCAN, r2SCAN, r2SCAN-3c, D4, dhf basis sets  
  Marvin Friede          : D4 for Fr, Ra, Ac-Lr                          
  Lars Goerigk           : TD-DFT with DH, B97 family of functionals     
  Stefan Grimme          : VdW corrections, initial TS optimization, DFT functionals, gCP, sTDA/sTD-DF 
  Waldemar Hujo          : DFT-NL                                        
  H. Jonsson             : NEB                                           
  Holger Kruse           : gCP                                           
  Marcel Mueller         : wB97X-3c, vDZP basis set                      
  Hagen Neugebauer       : wr2SCAN, Native XTB                           
  Gianluca Regni         : ADLD/ADEX                                     
  Tobias Risthaus        : pre 6.0 range-separated hybrid DFT and stability analysis
  Lukas Wittmann         : regularized MP2, r2SCAN double-hybrids, wr2SCAN        
                                                                         
We gratefully acknowledge several colleagues who have allowed us to      
interface, adapt or use parts of their codes:                            
  Ed Valeev, F. Pavosevic, A. Kumar             : LibInt (2-el integral package), F12 methods 
  Garnet Chan, S. Sharma, J. Yang, R. Olivares  : DMRG                   
  Ulf Ekstrom                                   : XCFun DFT Library      
  Mihaly Kallay                                 : mrcc  (arbitrary order and MRCC methods)
  Frank Weinhold                                : gennbo (NPA and NBO analysis)           
  Simon Mueller                                 : openCOSMO-RS                            
  Christopher J. Cramer and Donald G. Truhlar   : smd solvation model                     
  S Lehtola, MJT Oliveira, MAL Marques          : LibXC Library                           
  Liviu Ungur et al                             : ANISO software                          


 Your calculation uses the libint2 library for the computation of 2-el integrals
 For citations please refer to: http://libint.valeyev.net

 Your ORCA version has been built with support for libXC version: 7.0.0
 For citations please refer to: https://libxc.gitlab.io

 This ORCA versions uses:
   CBLAS   interface :  Fast vector & matrix operations
   LAPACKE interface :  Fast linear algebra routines
   Shared memory     :  Shared parallel matrices


  ***********************************
  * Starting time: Thu Jun  4 22:59:24 2026
  * Host name:     AHMET
  * Process ID:    31848
  * Working dir.:  D:\Makaleler\coumarin-logp-working-source\dft\molecules\CMR_GOLD_020
  ***********************************

NOTE: MaxCore=3000 MB was set to SCF,MP2,MDCI,CIPSI,MRCI,RASCI and CIS
      => If you want to overwrite this, your respective input block should be placed after the MaxCore statement


***************************************
The coordinates will be read from file: input/CMR_GOLD_020_start.xyz
***************************************


Your calculation utilizes the atom-pairwise dispersion correction
with the Becke-Johnson damping scheme (D3BJ)


================================================================================

----- Orbital basis set information -----
Your calculation utilizes the basis: def2-SVP
   F. Weigend and R. Ahlrichs, Phys. Chem. Chem. Phys. 7, 3297 (2005).

----- AuxJ basis set information -----
Your calculation utilizes the auxiliary basis: def2/J
   H-Rn: F. Weigend, Phys. Chem. Chem. Phys. 8, 1057 (2006).
   Fr-Lr: K. Eichkorn, F. Weigend, O. Treutler, R. Ahlrichs; Theor. Chem. Acc. 97, 119 (1997).

================================================================================
                                        WARNINGS
                       Please study these warnings very carefully!
================================================================================


WARNING: Geometry Optimization
  ===> : Switching off AutoStart
         For restart on a previous wavefunction, please use MOREAD

================================================================================
                                       INPUT FILE
================================================================================
NAME = input\CMR_GOLD_020_optfreq.inp
|  1> ! B3LYP D3BJ def2-SVP TightSCF RIJCOSX def2/J CPCM(Water) Opt Freq
|  2> 
|  3> %pal
|  4>   nprocs 8
|  5> end
|  6> 
|  7> %maxcore 3000
|  8> 
|  9> %scf
| 10>   MaxIter 500
| 11> end
| 12> 
| 13> %output
| 14>   Print[P_Mulliken] 1
| 15>   Print[P_Loewdin] 1
| 16> end
| 17> 
| 18> * xyzfile 0 1 input/CMR_GOLD_020_start.xyz
| 19> 
| 20>                          ****END OF INPUT****
================================================================================

                       *****************************
                       * Geometry Optimization Run *
                       *****************************

Geometry optimization settings:
Update method            Update   .... BFGS
Choice of coordinates    CoordSys .... (2022) Redundant Internals
Initial Hessian          InHess   .... Almloef's Model
Max. no of cycles        MaxIter  .... 144

Convergence Tolerances:
Energy Change            TolE     ....  5.0000e-06 Eh
Max. Gradient            TolMAXG  ....  3.0000e-04 Eh/bohr
RMS Gradient             TolRMSG  ....  1.0000e-04 Eh/bohr
Max. Displacement        TolMAXD  ....  4.0000e-03 bohr
RMS Displacement         TolRMSD  ....  2.0000e-03 bohr
Strict Convergence                .... False

------------------------------------------------------------------------------
                        ORCA OPTIMIZATION COORDINATE SETUP
------------------------------------------------------------------------------

The optimization will be done in redundant internal coordinates (2022)
Making redundant internal coordinates   ...  (2022 redundants) done
Evaluating the initial hessian          ...  (Almloef) done
Evaluating the coordinates              ...  done
Calculating the B-matrix                .... done
Calculating the G-matrix                .... done
The number of degrees of freedom        ....  267

    -----------------------------------------------------------------
                    Redundant Internal Coordinates


    -----------------------------------------------------------------
         Definition                    Initial Value    Approx d2E/dq
    -----------------------------------------------------------------
      1. B(C   1,O   0)                  1.2271         1.017948   
      2. B(O   2,C   1)                  1.3902         0.559121   
      3. B(C   3,O   2)                  1.4051         0.529380   
      4. B(C   4,C   3)                  1.3927         0.618614   
      5. B(C   5,C   4)                  1.4255         0.548361   
      6. B(C   6,C   5)                  1.4227         0.554146   
      7. B(C   7,C   6)                  1.4045         0.592336   
      8. B(C   8,C   7)                  1.3927         0.618541   
      9. B(C   9,C   8)                  1.3870         0.631720   
     10. B(C  10,C   9)                  1.3978         0.607257   
     11. B(C  10,C   5)                  1.4177         0.564244   
     12. B(C  11,C   6)                  1.4030         0.595682   
     13. B(C  12,C  11)                  1.3895         0.625964   
     14. B(C  12,C   3)                  1.3887         0.627751   
     15. B(C  13,C   4)                  1.4634         0.477178   
     16. B(C  14,C  13)                  1.3478         0.729510   
     17. B(C  14,C   1)                  1.4943         0.425958   
     18. B(C  15,C  14)                  1.4437         0.512915   
     19. B(C  16,C  15)                  1.3828         0.641523   
     20. B(S  17,C  16)                  1.7190         0.503053   
     21. B(C  18,S  17)                  1.7021         0.535233   
     22. B(N  19,C  18)                  1.3996         0.540250   
     23. B(C  20,N  19)                  1.3735         0.594643   
     24. B(C  21,C  20)                  1.3785         0.651813   
     25. B(C  22,C  21)                  1.4456         0.509405   
     26. B(O  23,C  22)                  1.2273         1.017190   
     27. B(C  24,C  21)                  1.4220         0.555550   
     28. B(C  25,C  24)                  1.4602         0.482724   
     29. B(C  26,C  25)                  1.4011         0.599909   
     30. B(C  27,C  26)                  1.3963         0.610576   
     31. B(C  28,C  27)                  1.3939         0.615810   
     32. B(C  29,C  28)                  1.3942         0.615176   
     33. B(C  30,C  29)                  1.3970         0.609015   
     34. B(C  30,C  25)                  1.4015         0.599027   
     35. B(N  31,C  24)                  1.3416         0.668610   
     36. B(N  31,N  19)                  1.3557         0.568434   
     37. B(N  32,C  18)                  1.3176         0.730125   
     38. B(N  32,C  15)                  1.3926         0.554356   
     39. B(H  33,C   7)                  1.0884         0.362160   
     40. B(H  34,C   8)                  1.0868         0.364360   
     41. B(H  35,C   9)                  1.0873         0.363733   
     42. B(H  36,C  10)                  1.0865         0.364805   
     43. B(H  37,C  11)                  1.0884         0.362225   
     44. B(H  38,C  12)                  1.0862         0.365184   
     45. B(H  39,C  13)                  1.0842         0.367819   
     46. B(H  40,C  16)                  1.0812         0.371908   
     47. B(H  41,H  36)                  4.4806         0.010000   
     48. B(H  41,C  20)                  1.0819         0.371013   
     49. B(H  42,C  22)                  1.1021         0.344433   
     50. B(H  43,C  26)                  1.0884         0.362270   
     51. B(H  44,C  27)                  1.0871         0.363913   
     52. B(H  45,C  28)                  1.0873         0.363652   
     53. B(H  46,C  29)                  1.0873         0.363637   
     54. B(H  47,C  30)                  1.0874         0.363578   
     55. A(O   0,C   1,O   2)          119.7149         0.459941   
     56. A(O   2,C   1,C  14)          117.0460         0.396083   
     57. A(O   0,C   1,C  14)          123.2391         0.440685   
     58. A(C   1,O   2,C   3)          122.7253         0.408915   
     59. A(O   2,C   3,C   4)          121.3025         0.419036   
     60. A(C   4,C   3,C  12)          122.3784         0.434863   
     61. A(O   2,C   3,C  12)          116.3186         0.420133   
     62. A(C   3,C   4,C  13)          116.4024         0.414046   
     63. A(C   3,C   4,C   5)          119.1218         0.424438   
     64. A(C   5,C   4,C  13)          124.4747         0.405297   
     65. A(C   6,C   5,C  10)          116.9959         0.418307   
     66. A(C   4,C   5,C   6)          118.4453         0.416186   
     67. A(C   4,C   5,C  10)          124.5588         0.417526   
     68. A(C   5,C   6,C   7)          120.2817         0.421949   
     69. A(C   7,C   6,C  11)          119.4645         0.427440   
     70. A(C   5,C   6,C  11)          120.2538         0.422374   
     71. A(C   6,C   7,H  33)          120.4229         0.350534   
     72. A(C   8,C   7,H  33)          118.4762         0.353109   
     73. A(C   6,C   7,C   8)          121.1009         0.430337   
     74. A(C   7,C   8,H  34)          120.1273         0.353471   
     75. A(C   7,C   8,C   9)          119.6690         0.435347   
     76. A(C   9,C   8,H  34)          120.2036         0.354736   
     77. A(C   8,C   9,H  35)          120.0920         0.354633   
     78. A(C   8,C   9,C  10)          119.9832         0.433907   
     79. A(C  10,C   9,H  35)          119.9248         0.352269   
     80. A(C   5,C  10,H  36)          121.1767         0.348100   
     81. A(C   5,C  10,C   9)          121.9693         0.425200   
     82. A(C   9,C  10,H  36)          116.8537         0.352444   
     83. A(C   6,C  11,H  37)          120.5152         0.350878   
     84. A(C  12,C  11,H  37)          118.7042         0.353834   
     85. A(C   6,C  11,C  12)          120.7805         0.431697   
     86. A(C   3,C  12,C  11)          119.0196         0.435788   
     87. A(C   3,C  12,H  38)          120.5432         0.354493   
     88. A(C  11,C  12,H  38)          120.4371         0.354322   
     89. A(C   4,C  13,C  14)          123.7212         0.426406   
     90. A(C  14,C  13,H  39)          118.7488         0.364123   
     91. A(C   4,C  13,H  39)          117.5277         0.338920   
     92. A(C   1,C  14,C  15)          120.2488         0.392645   
     93. A(C   1,C  14,C  13)          118.7456         0.417845   
     94. A(C  13,C  14,C  15)          121.0015         0.431967   
     95. A(C  14,C  15,C  16)          127.3179         0.422134   
     96. A(C  16,C  15,N  32)          114.4237         0.425254   
     97. A(C  14,C  15,N  32)          118.2380         0.408650   
     98. A(C  15,C  16,S  17)          110.2950         0.443958   
     99. A(S  17,C  16,H  40)          119.9661         0.360360   
    100. A(C  15,C  16,H  40)          129.7390         0.356905   
    101. A(C  16,S  17,C  18)           89.1997         0.453617   
    102. A(S  17,C  18,N  19)          120.5280         0.432395   
    103. A(N  19,C  18,N  32)          122.8014         0.430399   
    104. A(S  17,C  18,N  32)          116.6699         0.456621   
    105. A(C  18,N  19,C  20)          127.2019         0.414902   
    106. A(C  20,N  19,N  31)          111.5307         0.415907   
    107. A(C  18,N  19,N  31)          121.2644         0.408886   
    108. A(N  19,C  20,H  41)          120.9829         0.350033   
    109. A(C  21,C  20,H  41)          131.7300         0.357725   
    110. A(N  19,C  20,C  21)          107.2813         0.431869   
    111. A(C  22,C  21,C  24)          129.7253         0.410959   
    112. A(C  20,C  21,C  24)          104.5524         0.429433   
    113. A(C  20,C  21,C  22)          125.7153         0.422816   
    114. A(O  23,C  22,H  42)          120.3637         0.378840   
    115. A(C  21,C  22,H  42)          116.2659         0.338901   
    116. A(C  21,C  22,O  23)          123.3691         0.455156   
    117. A(C  25,C  24,N  31)          120.3298         0.417952   
    118. A(C  21,C  24,N  31)          111.2371         0.428582   
    119. A(C  21,C  24,C  25)          128.4282         0.407062   
    120. A(C  26,C  25,C  30)          119.2404         0.428845   
    121. A(C  24,C  25,C  30)          120.7888         0.412533   
    122. A(C  24,C  25,C  26)          119.9684         0.412641   
    123. A(C  25,C  26,C  27)          120.3760         0.430317   
    124. A(C  27,C  26,H  43)          119.4177         0.352353   
    125. A(C  25,C  26,H  43)          120.2057         0.351305   
    126. A(C  26,C  27,C  28)          120.0067         0.432344   
    127. A(C  28,C  27,H  44)          120.0814         0.353133   
    128. A(C  26,C  27,H  44)          119.9104         0.352623   
    129. A(C  27,C  28,C  29)          120.0322         0.432928   
    130. A(C  29,C  28,H  45)          120.0237         0.353029   
    131. A(C  27,C  28,H  45)          119.9398         0.353090   
    132. A(C  28,C  29,C  30)          120.0709         0.432066   
    133. A(C  30,C  29,H  46)          120.0433         0.352425   
    134. A(C  28,C  29,H  46)          119.8823         0.353026   
    135. A(C  25,C  30,C  29)          120.2627         0.430006   
    136. A(C  29,C  30,H  47)          118.8387         0.352416   
    137. A(C  25,C  30,H  47)          120.8833         0.351432   
    138. A(N  19,N  31,C  24)          105.3507         0.424698   
    139. A(C  15,N  32,C  18)          109.3999         0.432397   
    140. D(C   3,O   2,C   1,C  14)     -2.5967         0.022646   
    141. D(C   3,O   2,C   1,O   0)    177.4498         0.022646   
    142. D(C   4,C   3,O   2,C   1)      0.9253         0.020204   
    143. D(C  12,C   3,O   2,C   1)   -178.8307         0.020204   
    144. D(C  13,C   4,C   3,C  12)   -179.4096         0.026473   
    145. D(C   5,C   4,C   3,O   2)   -179.5034         0.026473   
    146. D(C   5,C   4,C   3,C  12)      0.2376         0.026473   
    147. D(C  13,C   4,C   3,O   2)      0.8494         0.026473   
    148. D(C   6,C   5,C   4,C   3)     -0.2536         0.020566   
    149. D(C  10,C   5,C   4,C  13)     -0.7089         0.020566   
    150. D(C   6,C   5,C   4,C  13)    179.3631         0.020566   
    151. D(C  10,C   5,C   4,C   3)    179.6744         0.020566   
    152. D(C  11,C   6,C   5,C   4)      0.0987         0.021018   
    153. D(C   7,C   6,C   5,C  10)      0.1323         0.021018   
    154. D(C   7,C   6,C   5,C   4)   -179.9342         0.021018   
    155. D(C  11,C   6,C   5,C  10)   -179.8348         0.021018   
    156. D(H  33,C   7,C   6,C  11)     -0.0428         0.024155   
    157. D(H  33,C   7,C   6,C   5)    179.9898         0.024155   
    158. D(C   8,C   7,C   6,C  11)    179.8965         0.024155   
    159. D(C   8,C   7,C   6,C   5)     -0.0708         0.024155   
    160. D(H  34,C   8,C   7,H  33)      0.0057         0.026467   
    161. D(H  34,C   8,C   7,C   6)   -179.9348         0.026467   
    162. D(C   9,C   8,C   7,H  33)    179.9126         0.026467   
    163. D(C   9,C   8,C   7,C   6)     -0.0279         0.026467   
    164. D(H  35,C   9,C   8,C   7)   -179.8520         0.027679   
    165. D(C  10,C   9,C   8,H  34)    179.9660         0.027679   
    166. D(C  10,C   9,C   8,C   7)      0.0592         0.027679   
    167. D(H  35,C   9,C   8,H  34)      0.0548         0.027679   
    168. D(H  36,C  10,C   5,C   4)     -0.2318         0.021821   
    169. D(C   9,C  10,C   5,C   6)     -0.1027         0.021821   
    170. D(C   9,C  10,C   5,C   4)    179.9684         0.021821   
    171. D(H  36,C  10,C   9,H  35)      0.1113         0.025455   
    172. D(H  36,C  10,C   9,C   8)   -179.8000         0.025455   
    173. D(C   5,C  10,C   9,H  35)    179.9194         0.025455   
    174. D(C   5,C  10,C   9,C   8)      0.0080         0.025455   
    175. D(H  36,C  10,C   5,C   6)    179.6972         0.021821   
    176. D(H  37,C  11,C   6,C   7)     -0.0141         0.024443   
    177. D(H  37,C  11,C   6,C   5)    179.9532         0.024443   
    178. D(C  12,C  11,C   6,C   7)   -179.8837         0.024443   
    179. D(C  12,C  11,C   6,C   5)      0.0836         0.024443   
    180. D(H  38,C  12,C  11,H  37)     -0.0700         0.027146   
    181. D(C   3,C  12,C  11,H  37)   -179.9801         0.027146   
    182. D(C   3,C  12,C  11,C   6)     -0.1082         0.027146   
    183. D(H  38,C  12,C   3,C   4)   -179.9650         0.027311   
    184. D(H  38,C  12,C   3,O   2)     -0.2119         0.027311   
    185. D(H  38,C  12,C  11,C   6)    179.8019         0.027146   
    186. D(C  11,C  12,C   3,C   4)     -0.0550         0.027311   
    187. D(C  11,C  12,C   3,O   2)    179.6981         0.027311   
    188. D(H  39,C  13,C   4,C   5)     -1.0044         0.015503   
    189. D(H  39,C  13,C   4,C   3)    178.6218         0.015503   
    190. D(C  14,C  13,C   4,C   5)    179.5462         0.015503   
    191. D(C  14,C  13,C   4,C   3)     -0.8276         0.015503   
    192. D(C  15,C  14,C  13,H  39)      0.4198         0.037755   
    193. D(C   1,C  14,C  13,H  39)    179.6875         0.037755   
    194. D(C   1,C  14,C  13,C   4)     -0.8694         0.037755   
    195. D(C  15,C  14,C   1,O   2)   -178.1946         0.012405   
    196. D(C  15,C  14,C   1,O   0)      1.7571         0.012405   
    197. D(C  15,C  14,C  13,C   4)    179.8629         0.037755   
    198. D(C  13,C  14,C   1,O   2)      2.5320         0.012405   
    199. D(C  13,C  14,C   1,O   0)   -177.5163         0.012405   
    200. D(N  32,C  15,C  14,C   1)   -160.4126         0.017932   
    201. D(C  16,C  15,C  14,C  13)   -159.4161         0.017932   
    202. D(C  16,C  15,C  14,C   1)     21.3271         0.017932   
    203. D(N  32,C  15,C  14,C  13)     18.8442         0.017932   
    204. D(H  40,C  16,C  15,N  32)   -178.9610         0.028603   
    205. D(H  40,C  16,C  15,C  14)     -0.6443         0.028603   
    206. D(S  17,C  16,C  15,N  32)      1.0716         0.028603   
    207. D(S  17,C  16,C  15,C  14)    179.3883         0.028603   
    208. D(C  18,S  17,C  16,H  40)    179.5183         0.010000   
    209. D(C  18,S  17,C  16,C  15)     -0.5107         0.010000   
    210. D(N  32,C  18,S  17,C  16)     -0.1663         0.010000   
    211. D(N  19,C  18,S  17,C  16)   -179.8627         0.010000   
    212. D(N  31,N  19,C  18,N  32)   -179.3850         0.023220   
    213. D(N  31,N  19,C  18,S  17)      0.2922         0.023220   
    214. D(C  20,N  19,C  18,N  32)     -0.0761         0.023220   
    215. D(C  20,N  19,C  18,S  17)    179.6012         0.023220   
    216. D(H  41,C  20,N  19,N  31)    179.1069         0.028456   
    217. D(H  41,C  20,N  19,C  18)     -0.2581         0.028456   
    218. D(C  21,C  20,N  19,N  31)     -0.1141         0.028456   
    219. D(C  21,C  20,N  19,C  18)   -179.4791         0.028456   
    220. D(C  24,C  21,C  20,H  41)    179.7209         0.029593   
    221. D(C  24,C  21,C  20,N  19)     -1.1741         0.029593   
    222. D(C  22,C  21,C  20,H  41)     -1.1666         0.029593   
    223. D(C  22,C  21,C  20,N  19)    177.9384         0.029593   
    224. D(H  42,C  22,C  21,C  24)      3.4225         0.017684   
    225. D(H  42,C  22,C  21,C  20)   -175.4606         0.017684   
    226. D(O  23,C  22,C  21,C  24)   -177.0005         0.017684   
    227. D(O  23,C  22,C  21,C  20)      4.1164         0.017684   
    228. D(N  31,C  24,C  21,C  22)   -176.9185         0.021129   
    229. D(N  31,C  24,C  21,C  20)      2.1446         0.021129   
    230. D(C  25,C  24,C  21,C  22)      2.2729         0.021129   
    231. D(C  25,C  24,C  21,C  20)   -178.6640         0.021129   
    232. D(C  30,C  25,C  24,N  31)   -129.0074         0.015865   
    233. D(C  30,C  25,C  24,C  21)     51.8658         0.015865   
    234. D(C  26,C  25,C  24,N  31)     50.4287         0.015865   
    235. D(C  26,C  25,C  24,C  21)   -128.6980         0.015865   
    236. D(H  43,C  26,C  25,C  30)    178.5762         0.024810   
    237. D(H  43,C  26,C  25,C  24)     -0.8687         0.024810   
    238. D(C  27,C  26,C  25,C  30)     -1.1492         0.024810   
    239. D(C  27,C  26,C  25,C  24)    179.4059         0.024810   
    240. D(H  44,C  27,C  26,H  43)      0.2279         0.025750   
    241. D(H  44,C  27,C  26,C  25)    179.9554         0.025750   
    242. D(C  28,C  27,C  26,H  43)   -179.3327         0.025750   
    243. D(C  28,C  27,C  26,C  25)      0.3949         0.025750   
    244. D(H  45,C  28,C  27,H  44)      0.0790         0.026220   
    245. D(H  45,C  28,C  27,C  26)    179.6388         0.026220   
    246. D(C  29,C  28,C  27,H  44)   -179.1657         0.026220   
    247. D(C  29,C  28,C  27,C  26)      0.3941         0.026220   
    248. D(H  46,C  29,C  28,H  45)     -0.3502         0.026163   
    249. D(H  46,C  29,C  28,C  27)    178.8938         0.026163   
    250. D(C  30,C  29,C  28,H  45)   -179.6597         0.026163   
    251. D(C  30,C  29,C  28,C  27)     -0.4156         0.026163   
    252. D(H  47,C  30,C  29,H  46)     -1.0713         0.025611   
    253. D(H  47,C  30,C  29,C  28)    178.2370         0.025611   
    254. D(C  25,C  30,C  29,H  46)   -179.6597         0.025611   
    255. D(C  25,C  30,C  29,C  28)     -0.3513         0.025611   
    256. D(H  47,C  30,C  25,C  26)   -177.4325         0.024733   
    257. D(H  47,C  30,C  25,C  24)      2.0077         0.024733   
    258. D(C  29,C  30,C  25,C  26)      1.1266         0.024733   
    259. D(C  29,C  30,C  25,C  24)   -179.4332         0.024733   
    260. D(N  19,N  31,C  24,C  25)    178.5340         0.033197   
    261. D(N  19,N  31,C  24,C  21)     -2.1999         0.033197   
    262. D(C  24,N  31,N  19,C  20)      1.4314         0.027457   
    263. D(C  24,N  31,N  19,C  18)   -179.1603         0.027457   
    264. D(C  15,N  32,C  18,S  17)      0.7804         0.040258   
    265. D(C  18,N  32,C  15,C  16)     -1.1807         0.022243   
    266. D(C  18,N  32,C  15,C  14)   -179.6612         0.022243   
    267. D(C  15,N  32,C  18,N  19)   -179.5307         0.040258   
    -----------------------------------------------------------------

Number of atoms                         .... 48
Number of degrees of freedom            .... 267


         *************************************************************
         *                GEOMETRY OPTIMIZATION CYCLE   1            *
         *************************************************************
---------------------------------
CARTESIAN COORDINATES (ANGSTROEM)
---------------------------------
  O     -1.831203    4.625644   -1.212658
  C     -2.434177    3.556890   -1.206830
  O     -3.721432    3.489066   -1.727520
  C     -4.449074    2.289256   -1.800521
  C     -3.917429    1.090840   -1.330643
  C     -4.692176   -0.100989   -1.437516
  C     -5.988005   -0.017036   -2.018681
  C     -6.784870   -1.167056   -2.141752
  C     -6.329685   -2.408036   -1.703007
  C     -5.068920   -2.515247   -1.134899
  C     -4.262928   -1.380798   -1.004103
  C     -6.479932    1.215404   -2.474181
  C     -5.713932    2.369823   -2.368125
  C     -2.578062    1.158417   -0.744994
  C     -1.855105    2.292730   -0.659612
  C     -0.538741    2.292682   -0.066747
  C      0.149916    3.376801    0.445693
  S      1.676218    2.877798    1.059164
  C      1.304008    1.276961    0.616461
  N      2.214206    0.242060    0.860052
  C      2.053865   -1.090564    0.568830
  C      3.192457   -1.742131    0.992230
  C      3.427050   -3.166551    0.916757
  O      2.645504   -3.952432    0.389575
  C      4.021180   -0.710982    1.513733
  C      5.363918   -0.823181    2.076515
  C      5.646370   -0.264439    3.329914
  C      6.924041   -0.377429    3.881596
  C      7.929509   -1.041947    3.181219
  C      7.662382   -1.586963    1.926045
  C      6.384784   -1.475658    1.372092
  N      3.407961    0.480851    1.456664
  N      0.131351    1.077516    0.049762
  H     -7.776676   -1.105433   -2.585868
  H     -6.959146   -3.287868   -1.806959
  H     -4.705725   -3.481078   -0.792246
  H     -3.283874   -1.523463   -0.555204
  H     -7.470362    1.284374   -2.920166
  H     -6.099033    3.320486   -2.725520
  H     -2.155819    0.240123   -0.352576
  H     -0.139613    4.417167    0.499004
  H      1.147655   -1.453629    0.102550
  H      4.361977   -3.531666    1.372001
  H      4.871462    0.265876    3.880207
  H      7.135067    0.059625    4.854381
  H      8.925653   -1.124192    3.609256
  H      8.453233   -2.089082    1.374016
  H      6.206151   -1.882542    0.379651

----------------------------
CARTESIAN COORDINATES (A.U.)
----------------------------
  NO LB      ZA    FRAG     MASS         X           Y           Z
   0 O     8.0000    0    15.999   -3.460473    8.741200   -2.291591
   1 C     6.0000    0    12.011   -4.599928    6.721549   -2.280578
   2 O     8.0000    0    15.999   -7.032487    6.593379   -3.264540
   3 C     6.0000    0    12.011   -8.407531    4.326067   -3.402491
   4 C     6.0000    0    12.011   -7.402868    2.061388   -2.514551
   5 C     6.0000    0    12.011   -8.866928   -0.190841   -2.716512
   6 C     6.0000    0    12.011  -11.315690   -0.032193   -3.814755
   7 C     6.0000    0    12.011  -12.821546   -2.205416   -4.047325
   8 C     6.0000    0    12.011  -11.961371   -4.550528   -3.218217
   9 C     6.0000    0    12.011   -9.578871   -4.753128   -2.144648
  10 C     6.0000    0    12.011   -8.055766   -2.609329   -1.897480
  11 C     6.0000    0    12.011  -12.245296    2.296781   -4.675524
  12 C     6.0000    0    12.011  -10.797766    4.478317   -4.475108
  13 C     6.0000    0    12.011   -4.871832    2.189091   -1.407834
  14 C     6.0000    0    12.011   -3.505641    4.332633   -1.246486
  15 C     6.0000    0    12.011   -1.018074    4.332540   -0.126133
  16 C     6.0000    0    12.011    0.283300    6.381230    0.842237
  17 S    16.0000    0    32.060    3.167592    5.438249    2.001529
  18 C     6.0000    0    12.011    2.464219    2.413106    1.164942
  19 N     7.0000    0    14.007    4.184244    0.457426    1.625263
  20 C     6.0000    0    12.011    3.881243   -2.060867    1.074933
  21 C     6.0000    0    12.011    6.032870   -3.292150    1.875043
  22 C     6.0000    0    12.011    6.476186   -5.983914    1.732420
  23 O     8.0000    0    15.999    4.999278   -7.469013    0.736190
  24 C     6.0000    0    12.011    7.598929   -1.343561    2.860541
  25 C     6.0000    0    12.011   10.136336   -1.555587    3.924044
  26 C     6.0000    0    12.011   10.670093   -0.499717    6.292626
  27 C     6.0000    0    12.011   13.084541   -0.713237    7.335154
  28 C     6.0000    0    12.011   14.984601   -1.968995    6.011633
  29 C     6.0000    0    12.011   14.479803   -2.998925    3.639698
  30 C     6.0000    0    12.011   12.065494   -2.788589    2.592878
  31 N     7.0000    0    14.007    6.440112    0.908676    2.752697
  32 N     7.0000    0    14.007    0.248218    2.036209    0.094037
  33 H     1.0000    0     1.008  -14.695788   -2.088966   -4.886583
  34 H     1.0000    0     1.008  -13.150879   -6.213170   -3.414658
  35 H     1.0000    0     1.008   -8.892532   -6.578284   -1.497127
  36 H     1.0000    0     1.008   -6.205623   -2.878929   -1.049184
  37 H     1.0000    0     1.008  -14.116938    2.427115   -5.518313
  38 H     1.0000    0     1.008  -11.525503    6.274809   -5.150487
  39 H     1.0000    0     1.008   -4.073907    0.453766   -0.666272
  40 H     1.0000    0     1.008   -0.263831    8.347236    0.942982
  41 H     1.0000    0     1.008    2.168754   -2.746960    0.193792
  42 H     1.0000    0     1.008    8.242941   -6.673881    2.592705
  43 H     1.0000    0     1.008    9.205730    0.502432    7.332529
  44 H     1.0000    0     1.008   13.483323    0.112674    9.173450
  45 H     1.0000    0     1.008   16.867040   -2.124415    6.820506
  46 H     1.0000    0     1.008   15.974296   -3.947794    2.596514
  47 H     1.0000    0     1.008   11.727926   -3.557488    0.717436

--------------------------------
INTERNAL COORDINATES (ANGSTROEM)
--------------------------------
 O      0   0   0     0.000000000000     0.00000000     0.00000000
 C      1   0   0     1.227129029339     0.00000000     0.00000000
 O      2   1   0     1.390231533880   119.71488309     0.00000000
 C      3   2   1     1.405110501031   122.72533542   177.44981544
 C      4   3   2     1.392706786895   121.30248665     0.92530300
 C      5   4   3     1.425521181140   119.12184607   180.49660462
 C      6   5   4     1.422664557013   118.44527422   359.74638018
 C      7   6   5     1.404522919683   120.28166369   180.06576870
 C      8   7   6     1.392738886350   121.10088492   359.92916543
 C      9   8   7     1.387000103630   119.66896748   359.97207643
 C     10   9   8     1.397750745214   119.98318261     0.05922511
 C      7   6   5     1.402989600143   120.25382230     0.09870363
 C      4   3   2     1.388715795599   116.31863425   181.16933262
 C      5   4   3     1.463370848361   116.40243418     0.84937601
 C     14   5   4     1.347821842205   123.72123309   359.17236974
 C     15  14   5     1.443711378240   121.00152908   179.86286178
 C     16  15  14     1.382808371959   127.31794283   200.58388682
 S     17  16  15     1.718996427201   110.29498056   179.38834492
 C     18  17  16     1.702117526945    89.19974376   359.48928548
 N     19  18  17     1.399577701830   120.52802878   180.13725642
 C     20  19  18     1.373464616820   127.20185216   179.60116164
 C     21  20  19     1.378476850319   107.28130372   180.52093772
 C     22  21  20     1.445580594614   125.71533594   177.93840838
 O     23  22  21     1.227331827631   123.36906624     4.11644820
 C     22  21  20     1.421975905256   104.55235989   358.82590768
 C     25  22  21     1.460224933469   128.42822456   181.33602925
 C     26  25  22     1.401064938523   119.96843939   231.30195424
 C     27  26  25     1.396267246334   120.37598425   179.40590443
 C     28  27  26     1.393943750904   120.00669489     0.39485589
 C     29  28  27     1.394224211621   120.03216538     0.39412190
 C     30  29  28     1.396964095362   120.07087098   359.58438440
 N     25  22  21     1.341551126865   111.23711992     2.14462995
 N     19  18  17     1.317592484578   116.66985618   359.83366300
 H      8   7   6     1.088446927326   120.42292598   179.98983296
 H      9   8   7     1.086798977294   120.12733644   180.06521485
 H     10   9   8     1.087267740912   120.09196337   180.14802839
 H     11  10   9     1.086466030872   116.85369610   180.19995608
 H     12   7   6     1.088398474354   120.51518297   179.95322996
 H     13   4   3     1.086183412765   120.54320261   359.78809408
 H     14   5   4     1.084226356090   117.52770470   178.62175870
 H     17  16  15     1.081216927105   129.73895153   359.35570921
 H     21  20  19     1.081872842564   120.98289387   359.74188334
 H     23  22  21     1.102108618996   116.26592016   184.53944388
 H     27  26  25     1.088364884468   120.20572450   359.13125977
 H     28  27  26     1.087132596366   119.91039968   179.95544392
 H     29  28  27     1.087328204326   119.93979341   179.63880431
 H     30  29  28     1.087339326860   119.88226126   178.89384467
 H     31  30  29     1.087383630664   118.83865019   178.23702041

---------------------------
INTERNAL COORDINATES (A.U.)
---------------------------
 O      0   0   0     0.000000000000     0.00000000     0.00000000
 C      1   0   0     2.318937796436     0.00000000     0.00000000
 O      2   1   0     2.627156861775   119.71488309     0.00000000
 C      3   2   1     2.655274034845   122.72533542   177.44981544
 C      4   3   2     2.631834412084   121.30248665     0.92530300
 C      5   4   3     2.693844630458   119.12184607   180.49660462
 C      6   5   4     2.688446393191   118.44527422   359.74638018
 C      7   6   5     2.654163667016   120.28166369   180.06576870
 C      8   7   6     2.631895071263   121.10088492   359.92916543
 C      9   8   7     2.621050343581   119.66896748   359.97207643
 C     10   9   8     2.641366111939   119.98318261     0.05922511
 C      7   6   5     2.651266113009   120.25382230     0.09870363
 C      4   3   2     2.624292531534   116.31863425   181.16933262
 C      5   4   3     2.765370135767   116.40243418     0.84937601
 C     14   5   4     2.547014159084   123.72123309   359.17236974
 C     15  14   5     2.728219121299   121.00152908   179.86286178
 C     16  15  14     2.613129118695   127.31794283   200.58388682
 S     17  16  15     3.248432472600   110.29498056   179.38834492
 C     18  17  16     3.216535973674    89.19974376   359.48928548
 N     19  18  17     2.644818559603   120.52802878   180.13725642
 C     20  19  18     2.595471980420   127.20185216   179.60116164
 C     21  20  19     2.604943729053   107.28130372   180.52093772
 C     22  21  20     2.731751428332   125.71533594   177.93840838
 O     23  22  21     2.319321029667   123.36906624     4.11644820
 C     22  21  20     2.687145029969   104.55235989   358.82590768
 C     25  22  21     2.759425218180   128.42822456   181.33602925
 C     26  25  22     2.647629029648   119.96843939   231.30195424
 C     27  26  25     2.638562705335   120.37598425   179.40590443
 C     28  27  26     2.634171935300   120.00669489     0.39485589
 C     29  28  27     2.634701929246   120.03216538     0.39412190
 C     30  29  28     2.639879559155   120.07087098   359.58438440
 N     25  22  21     2.535164224428   111.23711992     2.14462995
 N     19  18  17     2.489888951966   116.66985618   359.83366300
 H      8   7   6     2.056866603954   120.42292598   179.98983296
 H      9   8   7     2.053752429710   120.12733644   180.06521485
 H     10   9   8     2.054638264571   120.09196337   180.14802839
 H     11  10   9     2.053123252157   116.85369610   180.19995608
 H     12   7   6     2.056775041106   120.51518297   179.95322996
 H     13   4   3     2.052589181335   120.54320261   359.78809408
 H     14   5   4     2.048890880190   117.52770470   178.62175870
 H     17  16  15     2.043203883588   129.73895153   359.35570921
 H     21  20  19     2.044443384173   120.98289387   359.74188334
 H     23  22  21     2.082683459737   116.26592016   184.53944388
 H     27  26  25     2.056711565420   120.20572450   359.13125977
 H     28  27  26     2.054382878391   119.91039968   179.95544392
 H     29  28  27     2.054752523864   119.93979341   179.63880431
 H     30  29  28     2.054773542407   119.88226126   178.89384467
 H     31  30  29     2.054857264464   118.83865019   178.23702041

---------------------
BASIS SET INFORMATION
---------------------
There are 5 groups of distinct atoms

 Group   1 Type O   : 7s4p1d contracted to 3s2p1d pattern {511/31/1}
 Group   2 Type C   : 7s4p1d contracted to 3s2p1d pattern {511/31/1}
 Group   3 Type S   : 10s7p1d contracted to 4s3p1d pattern {5311/511/1}
 Group   4 Type N   : 7s4p1d contracted to 3s2p1d pattern {511/31/1}
 Group   5 Type H   : 4s1p contracted to 2s1p pattern {31/1}

Atom   0O    basis set group =>   1
Atom   1C    basis set group =>   2
Atom   2O    basis set group =>   1
Atom   3C    basis set group =>   2
Atom   4C    basis set group =>   2
Atom   5C    basis set group =>   2
Atom   6C    basis set group =>   2
Atom   7C    basis set group =>   2
Atom   8C    basis set group =>   2
Atom   9C    basis set group =>   2
Atom  10C    basis set group =>   2
Atom  11C    basis set group =>   2
Atom  12C    basis set group =>   2
Atom  13C    basis set group =>   2
Atom  14C    basis set group =>   2
Atom  15C    basis set group =>   2
Atom  16C    basis set group =>   2
Atom  17S    basis set group =>   3
Atom  18C    basis set group =>   2
Atom  19N    basis set group =>   4
Atom  20C    basis set group =>   2
Atom  21C    basis set group =>   2
Atom  22C    basis set group =>   2
Atom  23O    basis set group =>   1
Atom  24C    basis set group =>   2
Atom  25C    basis set group =>   2
Atom  26C    basis set group =>   2
Atom  27C    basis set group =>   2
Atom  28C    basis set group =>   2
Atom  29C    basis set group =>   2
Atom  30C    basis set group =>   2
Atom  31N    basis set group =>   4
Atom  32N    basis set group =>   4
Atom  33H    basis set group =>   5
Atom  34H    basis set group =>   5
Atom  35H    basis set group =>   5
Atom  36H    basis set group =>   5
Atom  37H    basis set group =>   5
Atom  38H    basis set group =>   5
Atom  39H    basis set group =>   5
Atom  40H    basis set group =>   5
Atom  41H    basis set group =>   5
Atom  42H    basis set group =>   5
Atom  43H    basis set group =>   5
Atom  44H    basis set group =>   5
Atom  45H    basis set group =>   5
Atom  46H    basis set group =>   5
Atom  47H    basis set group =>   5
---------------------------------
AUXILIARY/J BASIS SET INFORMATION
---------------------------------
There are 5 groups of distinct atoms

 Group   1 Type O   : 12s5p4d2f1g contracted to 6s4p3d1f1g pattern {711111/2111/211/2/1}
 Group   2 Type C   : 12s5p4d2f1g contracted to 6s4p3d1f1g pattern {711111/2111/211/2/1}
 Group   3 Type S   : 14s5p5d2f1g contracted to 8s4p3d1f1g pattern {71111111/2111/311/2/1}
 Group   4 Type N   : 12s5p4d2f1g contracted to 6s4p3d1f1g pattern {711111/2111/211/2/1}
 Group   5 Type H   : 5s2p1d contracted to 3s1p1d pattern {311/2/1}

Atom   0O    basis set group =>   1
Atom   1C    basis set group =>   2
Atom   2O    basis set group =>   1
Atom   3C    basis set group =>   2
Atom   4C    basis set group =>   2
Atom   5C    basis set group =>   2
Atom   6C    basis set group =>   2
Atom   7C    basis set group =>   2
Atom   8C    basis set group =>   2
Atom   9C    basis set group =>   2
Atom  10C    basis set group =>   2
Atom  11C    basis set group =>   2
Atom  12C    basis set group =>   2
Atom  13C    basis set group =>   2
Atom  14C    basis set group =>   2
Atom  15C    basis set group =>   2
Atom  16C    basis set group =>   2
Atom  17S    basis set group =>   3
Atom  18C    basis set group =>   2
Atom  19N    basis set group =>   4
Atom  20C    basis set group =>   2
Atom  21C    basis set group =>   2
Atom  22C    basis set group =>   2
Atom  23O    basis set group =>   1
Atom  24C    basis set group =>   2
Atom  25C    basis set group =>   2
Atom  26C    basis set group =>   2
Atom  27C    basis set group =>   2
Atom  28C    basis set group =>   2
Atom  29C    basis set group =>   2
Atom  30C    basis set group =>   2
Atom  31N    basis set group =>   4
Atom  32N    basis set group =>   4
Atom  33H    basis set group =>   5
Atom  34H    basis set group =>   5
Atom  35H    basis set group =>   5
Atom  36H    basis set group =>   5
Atom  37H    basis set group =>   5
Atom  38H    basis set group =>   5
Atom  39H    basis set group =>   5
Atom  40H    basis set group =>   5
Atom  41H    basis set group =>   5
Atom  42H    basis set group =>   5
Atom  43H    basis set group =>   5
Atom  44H    basis set group =>   5
Atom  45H    basis set group =>   5
Atom  46H    basis set group =>   5
Atom  47H    basis set group =>   5


           ************************************************************
           *        Program running with 8 parallel MPI-processes     *
           *              working on a common directory               *
           ************************************************************
------------------------------------------------------------------------------
                             ORCA STARTUP CALCULATIONS
                           -- RI-GTO INTEGRALS CHOSEN --
------------------------------------------------------------------------------
------------------------------------------------------------------------------
                   ___                                                        
                  /   \      - P O W E R E D   B Y -                         
                 /     \                                                     
                 |  |  |   _    _      __       _____    __    __             
                 |  |  |  | |  | |    /  \     |  _  \  |  |  /  |          
                  \  \/   | |  | |   /    \    | | | |  |  | /  /          
                 / \  \   | |__| |  /  /\  \   | |_| |  |  |/  /          
                |  |  |   |  __  | /  /__\  \  |    /   |      \           
                |  |  |   | |  | | |   __   |  |    \   |  |\   \          
                \     /   | |  | | |  |  |  |  | |\  \  |  | \   \       
                 \___/    |_|  |_| |__|  |__|  |_| \__\ |__|  \__/        
                                                                              
                      - O R C A' S   B I G   F R I E N D -                    
                                      &                                       
                       - I N T E G R A L  F E E D E R -                       
                                                                              
 v1 FN, 2020, v2 2021, v3 2022-2024                                           
------------------------------------------------------------------------------


----------------------
SHARK INTEGRAL PACKAGE
----------------------

Number of atoms                             ...     48
Number of basis functions                   ...    541
Number of shells                            ...    245
Maximum angular momentum                    ...      2
Integral batch strategy                     ... SHARK/LIBINT Hybrid
RI-J (if used) integral strategy            ... SPLIT-RIJ (Revised 2003 algorithm where possible)
Printlevel                                  ...      1
Contraction scheme used                     ... SEGMENTED contraction
Prescreening option                         ... SCHWARTZ
   Thresh                                   ... 2.500e-11
   Tcut                                     ... 2.500e-12
   Tpresel                                  ... 2.500e-12 
Coulomb Range Separation                    ... NOT USED
Exchange Range Separation                   ... NOT USED
Multipole approximations                    ... NOT USED
Finite Nucleus Model                        ... NOT USED
CABS basis                                  ... NOT available
Auxiliary Coulomb fitting basis             ... AVAILABLE
   # of basis functions in Aux-J            ...   1784
   # of shells in Aux-J                     ...    572
   Maximum angular momentum in Aux-J        ...      4
Auxiliary J/K fitting basis                 ... NOT available
Auxiliary Correlation fitting basis         ... NOT available
Auxiliary 'external' fitting basis          ... NOT available

Checking pre-screening integrals            ... done (  0.0 sec) Dimension = 245
   => SHARK Basis and OBASIS are compatible. Storing Pre-screening
Shell pair information
Shell pair cut-off parameter TPreSel        ...   2.5e-12
Total number of shell pairs                 ...     30135
Shell pairs after pre-screening             ...     15540
Total number of primitive shell pairs       ...    114487
Primitive shell pairs kept                  ...     36608
          la=0 lb=0:   4394 shell pairs
          la=1 lb=0:   5730 shell pairs
          la=1 lb=1:   1929 shell pairs
          la=2 lb=0:   1954 shell pairs
          la=2 lb=1:   1313 shell pairs
          la=2 lb=2:    220 shell pairs

Checking whether 4 symmetric matrices of dimension 541 fit in memory
:Max Core in MB      =   3000.00
 MB in use           =     18.86
 MB left             =   2981.14
 MB needed           =      4.47
 Data fit in memory  = YES
Calculating RI/J V-Matrix + Cholesky decomp.... done (  0.1 sec)
Calculating Nuclear repulsion               ... done (  0.0 sec) ENN=   3043.140345937260 Eh

Diagonalization of the overlap matrix:
Smallest eigenvalue                        ... 2.033e-04
Time for diagonalization                   ...    0.018 sec
Threshold for overlap eigenvalues          ... 1.000e-07
Number of eigenvalues below threshold      ... 0
Time for construction of square roots      ...    0.014 sec
Total time needed                          ...    0.034 sec

-------------------
DFT GRID GENERATION
-------------------

General Integration Accuracy     IntAcc      ... 4.388
Radial Grid Type                 RadialGrid  ... OptM3 with GC (2021)
Angular Grid (max. ang.)         AngularGrid ... 4 (Lebedev-302)
Angular grid pruning method      GridPruning ... 4 (adaptive)
Weight generation scheme         WeightScheme... mBecke (2022)
Basis function cutoff            BFCut       ... 1.0000e-11
Integration weight cutoff        WCut        ... 1.0000e-14
Partially contracted basis set               ... off
Rotationally invariant grid construction     ... off
Angular grids for H and He will be reduced by one unit

Total number of grid points                  ...   246693
Total number of batches                      ...     3882
Average number of points per batch           ...       63
Average number of grid points per atom       ...     5139

--------------------
COSX GRID GENERATION
--------------------

GRIDX 1
-------
General Integration Accuracy     IntAcc      ... 3.816
Radial Grid Type                 RadialGrid  ... OptM3 with GC (2021)
Angular Grid (max. ang.)         AngularGrid ... 1 (Lebedev-50)
Angular grid pruning method      GridPruning ... 4 (adaptive)
Weight generation scheme         WeightScheme... mBecke (2022)
Basis function cutoff            BFCut       ... 1.0000e-11
Integration weight cutoff        WCut        ... 1.0000e-14
Partially contracted basis set               ... on
Rotationally invariant grid construction     ... off
Angular grids for H and He will be reduced by one unit

Total number of grid points                  ...    32269
Total number of batches                      ...      273
Average number of points per batch           ...      118
Average number of grid points per atom       ...      672
UseSFitting                                  ... on

GRIDX 2
-------
General Integration Accuracy     IntAcc      ... 4.020
Radial Grid Type                 RadialGrid  ... OptM3 with GC (2021)
Angular Grid (max. ang.)         AngularGrid ... 2 (Lebedev-110)
Angular grid pruning method      GridPruning ... 4 (adaptive)
Weight generation scheme         WeightScheme... mBecke (2022)
Basis function cutoff            BFCut       ... 1.0000e-11
Integration weight cutoff        WCut        ... 1.0000e-14
Partially contracted basis set               ... on
Rotationally invariant grid construction     ... off
Angular grids for H and He will be reduced by one unit

Total number of grid points                  ...    69404
Total number of batches                      ...      564
Average number of points per batch           ...      123
Average number of grid points per atom       ...     1446
UseSFitting                                  ... on

GRIDX 3
-------
General Integration Accuracy     IntAcc      ... 4.338
Radial Grid Type                 RadialGrid  ... OptM3 with GC (2021)
Angular Grid (max. ang.)         AngularGrid ... 3 (Lebedev-194)
Angular grid pruning method      GridPruning ... 4 (adaptive)
Weight generation scheme         WeightScheme... mBecke (2022)
Basis function cutoff            BFCut       ... 1.0000e-11
Integration weight cutoff        WCut        ... 1.0000e-14
Partially contracted basis set               ... on
Rotationally invariant grid construction     ... off
Angular grids for H and He will be reduced by one unit

Total number of grid points                  ...   152931
Total number of batches                      ...     1219
Average number of points per batch           ...      125
Average number of grid points per atom       ...     3186
UseSFitting                                  ... on
Grids setup in   1.7 sec
Initializing property integral containers    ... done (  0.1 sec)

SHARK setup successfully completed in   2.0 seconds

Maximum memory used throughout the entire STARTUP-calculation: 63.5 MB


           ************************************************************
           *        Program running with 8 parallel MPI-processes     *
           *              working on a common directory               *
           ************************************************************
-------------------------------------------------------------------------------
                                 ORCA GUESS
                   Start orbitals & Density for SCF / CASSCF
-------------------------------------------------------------------------------

------------
SCF SETTINGS
------------
Hamiltonian:
 Density Functional     Method          .... DFT(GTOs)
 Exchange Functional    Exchange        .... B88
   X-Alpha parameter    XAlpha          ....  0.666667
   Becke's b parameter  XBeta           ....  0.004200
 Correlation Functional Correlation     .... LYP
 LDA part of GGA corr.  LDAOpt          .... VWN-5
 Gradients option       PostSCFGGA      .... off
 Hybrid DFT is turned on
   Fraction HF Exchange ScalHFX         ....  0.200000
   Scaling of DF-GGA-X  ScalDFX         ....  0.720000
   Scaling of DF-GGA-C  ScalDFC         ....  0.810000
   Scaling of DF-LDA-C  ScalLDAC        ....  1.000000
   Perturbative correction              ....  0.000000
   NL short-range parameter             ....  4.800000
 RI-approximation to the Coulomb term is turned on
   Number of AuxJ basis functions       .... 1784
   RIJ-COSX (HFX calculated with COS-X)).... on


General Settings:
 Integral files         IntName         .... input\CMR_GOLD_020_optfreq
 Hartree-Fock type      HFTyp           .... RHF
 Total Charge           Charge          ....    0
 Multiplicity           Mult            ....    1
 Number of Electrons    NEL             ....  232
 Basis Dimension        Dim             ....  541
 Nuclear Repulsion      ENuc            ....   3043.1403459373 Eh

Convergence Acceleration:
 AO-DIIS                CNVDIIS         .... on
   Start iteration      DIISMaxIt       ....    12
   Startup error        DIISStart       ....  0.200000
   # of expansion vecs  DIISMaxEq       ....     5
   Bias factor          DIISBfac        ....   1.050
   Max. coefficient     DIISMaxC        ....  10.000
 MO-DIIS                CNVKDIIS        .... off
 Trust-Rad. Augm. Hess. CNVTRAH         .... auto
   Auto Start mean grad. ratio tolernc. ....  1.125000
   Auto Start start iteration           ....    50
   Auto Start num. interpolation iter.  ....    10
   Max. Number of Micro iterations      ....    24
   Max. Number of Macro iterations      .... Maxiter - #DIIS iter
   Number of Davidson start vectors     ....     2
   Converg. threshold    (grad. norm)   ....   1.000e-05
   Grad. Scal. Fac. for Micro threshold ....   0.100
   Minimum threshold for Micro iter.    ....   1.000e-02
   NR start threshold (gradient norm)   ....   1.000e-04
   Initial trust radius                 ....   0.400
   Minimum AH scaling param. (alpha)    ....   1.000
   Maximum AH scaling param. (alpha)    .... 1000.000
   Quad. conv. algorithm                .... NR
   White noise on init. David. guess    .... on
   Maximum white noise                  ....   0.010
   Pseudo random numbers                .... off
   Inactive MOs                         .... canonical
   Orbital update algorithm             .... Taylor
   Preconditioner                       .... Diag
   Full preconditioner red. dimension   ....   250
 SOSCF                 CNVSOSCF           .... on
   Start iteration     SOSCFMaxIt         ....   150
   Startup grad/error  SOSCFStart         ....  0.003300
   Hessian update      SOSCFHessUp        .... L-BFGS
   Autom. constraints  SOSCFAutoConstrain .... off
 Level Shifting         CNVShift        .... on
   Level shift para.    LevelShift      ....    0.2500
   Turn off err/grad.   ShiftErr        ....    0.0010
 Zerner damping         CNVZerner       .... off
 Static damping         CNVDamp         .... on
   Fraction old density DampFac         ....    0.7000
   Max. Damping (<1)    DampMax         ....    0.9800
   Min. Damping (>=0)   DampMin         ....    0.0000
   Turn off err/grad.   DampErr         ....    0.1000

SCF Procedure:
 Maximum # iterations   MaxIter         ....   500
 SCF integral mode      SCFMode         .... Direct
   Integral package                     .... SHARK and LIBINT hybrid scheme
 Reset frequency        DirectResetFreq ....    20
 Integral Threshold     Thresh          ....  2.500e-11 Eh
 Primitive CutOff       TCut            ....  2.500e-12 Eh

Convergence Tolerance:
 Convergence Check Mode ConvCheckMode   .... Total+1el-Energy
 Convergence forced     ConvForced      .... 0
 Energy Change          TolE            ....  1.000e-08 Eh
 1-El. energy change                    ....  1.000e-05 Eh
 Orbital Gradient       TolG            ....  1.000e-05
 Orbital Rotation angle TolX            ....  1.000e-05
 DIIS Error             TolErr          ....  5.000e-07

------------------------------
INITIAL GUESS: MODEL POTENTIAL
------------------------------
Loading Hartree-Fock densities                     ... done
Calculating cut-offs                               ... done
Initializing the effective Hamiltonian             ... done
Setting up the integral package (SHARK)            ... done
Starting the Coulomb interaction                   ... done (   0.1 sec)
Making the grid                                    ... done (   0.3 sec)
Mapping shells                                     ... done
Starting the XC term evaluation                    ... done (   0.1 sec)
  promolecular density results
     # of electrons  =    231.999752747
     EX              =   -207.540694050
     EC              =     -8.114989807
     EX+EC           =   -215.655683857
Transforming the Hamiltonian                       ... done (   0.0 sec)
Diagonalizing the Hamiltonian                      ... done (   0.0 sec)
Back transforming the eigenvectors                 ... done (   0.0 sec)
Now organizing SCF variables                       ... done
                      ------------------
                      INITIAL GUESS DONE (   0.6 sec)
                      ------------------
             **** ENERGY FILE WAS UPDATED (input\CMR_GOLD_020_optfreq.en.tmp) ****
Finished Guess after   0.7 sec
Maximum memory used throughout the entire GUESS-calculation: 26.6 MB


           ************************************************************
           *        Program running with 8 parallel MPI-processes     *
           *              working on a common directory               *
           ************************************************************

-------------------------------------------------------------------------------------------
                                      ORCA LEAN-SCF
                              memory conserving SCF solver
-------------------------------------------------------------------------------------------

--------------------
CPCM SOLVATION MODEL
--------------------
CPCM parameters:
  Epsilon                                         ...      80.1510
  Refrac                                          ...       1.3328
  Rsolv                                           ...       1.3000
  Surface type                                    ... GAUSSIAN VDW
  Discretization scheme                           ... Constant charge density
    Threshold for H atoms                         ...       5.0000 (charges/Ang^2)
    Threshold for non-H atoms                     ...       5.0000 (charges/Ang^2)
  Epsilon function type                           ...         CPCM
Solvent:                                          ... WATER
Radii:
  Scheme                                          ... Element-dependent radii
  Radius for O  used is    3.4469 Bohr (=   1.8240 Ang.)
  Radius for C  used is    3.8550 Bohr (=   2.0400 Ang.)
  Radius for S  used is    4.0818 Bohr (=   2.1600 Ang.)
  Radius for N  used is    3.5149 Bohr (=   1.8600 Ang.)
  Radius for H  used is    2.4944 Bohr (=   1.3200 Ang.)
Calculating surface                               ...        done! (  0.0s)
Cavity surface points                             ...         4540
Cavity Volume                                     ...    3358.0007
Cavity Surface-area                               ...    1665.0510
Calculating surface distance matrix               ...        done! (  0.1s)
Performing Cholesky decomposition & store         ...        done! (  0.4s)
Overall time for CPCM initialization              ...                 0.5s

----------------------------------------D-I-I-S--------------------------------------------
Iteration    Energy (Eh)           Delta-E    RMSDP     MaxDP     DIISErr   Damp  Time(sec)
-------------------------------------------------------------------------------------------
               ***  Starting incremental Fock matrix formation  ***
    1    -1785.3095359693684259     0.00e+00  6.55e-03  1.20e-01  2.69e-01  0.700   3.4
    2    -1785.6112334233735055    -3.02e-01  4.32e-03  7.60e-02  9.98e-02  0.700   2.1
                               ***Turning on AO-DIIS***
    3    -1785.7273462926546017    -1.16e-01  1.98e-03  2.42e-02  3.43e-02  0.700   2.1
    4    -1785.7994978443034597    -7.22e-02  3.82e-03  7.01e-02  1.73e-02  0.000   2.0
    5    -1785.9579835552881377    -1.58e-01  5.53e-04  6.94e-03  6.05e-03  0.000   2.0
                              *** Initializing SOSCF ***
---------------------------------------S-O-S-C-F--------------------------------------
Iteration    Energy (Eh)           Delta-E    RMSDP     MaxDP     MaxGrad    Time(sec)
--------------------------------------------------------------------------------------
    6    -1785.9591289764189241    -1.15e-03  2.11e-04  3.33e-03  2.69e-03     1.9
               *** Restarting incremental Fock matrix formation ***
    7    -1785.9590074048414863     1.22e-04  1.98e-04  4.88e-03  4.51e-04     3.5
    8    -1785.9589633464461258     4.41e-05  1.15e-04  3.35e-03  9.39e-04     2.6
    9    -1785.9590404996947655    -7.72e-05  2.96e-05  4.73e-04  6.42e-05     2.3
   10    -1785.9590399698968213     5.30e-07  1.58e-05  2.96e-04  8.12e-05     2.3
   11    -1785.9590412516531615    -1.28e-06  8.01e-06  1.20e-04  1.85e-05     2.7
   12    -1785.9590412630082028    -1.14e-08  4.72e-06  8.75e-05  2.33e-05     3.0
   13    -1785.9590413223836549    -5.94e-08  1.36e-06  3.12e-05  3.33e-06     2.9
   14    -1785.9590413080336475     1.44e-08  8.14e-07  1.44e-05  5.09e-06     2.4
   15    -1785.9590413250784877    -1.70e-08  4.54e-07  8.75e-06  7.31e-07     2.2
                  *** Gradient check signals convergence ***

               *****************************************************
               *                     SUCCESS                       *
               *           SCF CONVERGED AFTER  15 CYCLES          *
               *****************************************************

Recomputing exchange energy using gridx3       ... done (    9.646 sec)
Old exchange energy                            :    -41.876764434 Eh
New exchange energy                            :    -41.876790211 Eh
Exchange energy change after final integration :     -0.000025777 Eh
Total energy after final integration           :  -1785.959067085 Eh
             **** ENERGY FILE WAS UPDATED (input\CMR_GOLD_020_optfreq.en.tmp) ****

----------------
TOTAL SCF ENERGY
----------------

Total Energy       :      -1785.95906708541588 Eh          -48598.41691 eV

Components:
Nuclear Repulsion  :       3043.14034593726001 Eh           82808.05869 eV
Electronic Energy  :      -4829.07377688673296 Eh         -131405.77801 eV
One Electron Energy:      -8485.56620341471171 Eh         -230903.99533 eV
Two Electron Energy:       3656.49242652797921 Eh           99498.21732 eV
CPCM Dielectric    :         -0.02561035926422 Eh              -0.69689 eV

Virial components:
Potential Energy   :      -3557.95906304948539 Eh          -96816.98819 eV
Kinetic Energy     :       1771.99999596406951 Eh           48218.57127 eV
Virial Ratio       :          2.00787757965753

DFT components:
N(Alpha)           :      116.000044342647 electrons
N(Beta)            :      116.000044342647 electrons
N(Total)           :      232.000088685294 electrons
E(X)               :     -166.491178478210 Eh       
E(C)               :       -9.535220536543 Eh       
E(XC)              :     -176.026399014753 Eh       

CPCM Solvation Model Properties:
Surface-charge          :         -0.02909747206333
Corrected charge        :         -0.00000000000000
Outlying charge corr.   :          0.00003707364102 Eh               0.00101 eV
Free-energy (cav+disp)  :  This term is not implemented in the current solvation scheme

---------------
SCF CONVERGENCE
---------------

  Last Energy change         ...    1.7045e-08  Tolerance :   1.0000e-08
  Last MAX-Density change    ...    8.7523e-06  Tolerance :   1.0000e-07
  Last RMS-Density change    ...    4.5434e-07  Tolerance :   5.0000e-09
  Last DIIS Error            ...    2.6892e-03  Tolerance :   5.0000e-07
  Last Orbital Gradient      ...    7.3091e-07  Tolerance :   1.0000e-05
  Last Orbital Rotation      ...    2.1080e-06  Tolerance :   1.0000e-05


----------------
ORBITAL ENERGIES
----------------

  NO   OCC          E(Eh)            E(eV) 
   0   2.0000     -88.897423     -2419.0219 
   1   2.0000     -19.209851      -522.7266 
   2   2.0000     -19.131513      -520.5949 
   3   2.0000     -19.130907      -520.5785 
   4   2.0000     -14.443617      -393.0308 
   5   2.0000     -14.365009      -390.8918 
   6   2.0000     -14.345232      -390.3536 
   7   2.0000     -10.334666      -281.2206 
   8   2.0000     -10.300228      -280.2835 
   9   2.0000     -10.278638      -279.6959 
  10   2.0000     -10.272131      -279.5189 
  11   2.0000     -10.249114      -278.8926 
  12   2.0000     -10.241815      -278.6940 
  13   2.0000     -10.238683      -278.6087 
  14   2.0000     -10.222465      -278.1674 
  15   2.0000     -10.220767      -278.1212 
  16   2.0000     -10.219733      -278.0931 
  17   2.0000     -10.216862      -278.0150 
  18   2.0000     -10.212465      -277.8953 
  19   2.0000     -10.205688      -277.7109 
  20   2.0000     -10.205611      -277.7088 
  21   2.0000     -10.202518      -277.6246 
  22   2.0000     -10.202454      -277.6229 
  23   2.0000     -10.201771      -277.6043 
  24   2.0000     -10.196496      -277.4608 
  25   2.0000     -10.196017      -277.4477 
  26   2.0000     -10.194634      -277.4101 
  27   2.0000     -10.194514      -277.4068 
  28   2.0000     -10.194232      -277.3992 
  29   2.0000     -10.192223      -277.3445 
  30   2.0000     -10.191841      -277.3341 
  31   2.0000     -10.191475      -277.3241 
  32   2.0000     -10.191033      -277.3121 
  33   2.0000      -7.993936      -217.5261 
  34   2.0000      -5.962045      -162.2355 
  35   2.0000      -5.957745      -162.1185 
  36   2.0000      -5.955413      -162.0550 
  37   2.0000      -1.103818       -30.0364 
  38   2.0000      -1.077993       -29.3337 
  39   2.0000      -1.028390       -27.9839 
  40   2.0000      -1.020684       -27.7742 
  41   2.0000      -0.980782       -26.6884 
  42   2.0000      -0.887196       -24.1418 
  43   2.0000      -0.877478       -23.8774 
  44   2.0000      -0.850502       -23.1433 
  45   2.0000      -0.837257       -22.7829 
  46   2.0000      -0.828788       -22.5525 
  47   2.0000      -0.821922       -22.3656 
  48   2.0000      -0.806000       -21.9324 
  49   2.0000      -0.783460       -21.3190 
  50   2.0000      -0.763140       -20.7661 
  51   2.0000      -0.754712       -20.5368 
  52   2.0000      -0.742922       -20.2159 
  53   2.0000      -0.735197       -20.0057 
  54   2.0000      -0.718595       -19.5540 
  55   2.0000      -0.687711       -18.7136 
  56   2.0000      -0.663539       -18.0558 
  57   2.0000      -0.656590       -17.8667 
  58   2.0000      -0.642796       -17.4914 
  59   2.0000      -0.628136       -17.0925 
  60   2.0000      -0.614976       -16.7343 
  61   2.0000      -0.607445       -16.5294 
  62   2.0000      -0.593187       -16.1414 
  63   2.0000      -0.587226       -15.9792 
  64   2.0000      -0.574342       -15.6286 
  65   2.0000      -0.570684       -15.5291 
  66   2.0000      -0.567836       -15.4516 
  67   2.0000      -0.538243       -14.6463 
  68   2.0000      -0.533462       -14.5163 
  69   2.0000      -0.522424       -14.2159 
  70   2.0000      -0.513434       -13.9713 
  71   2.0000      -0.496573       -13.5124 
  72   2.0000      -0.493926       -13.4404 
  73   2.0000      -0.482282       -13.1236 
  74   2.0000      -0.480304       -13.0697 
  75   2.0000      -0.479381       -13.0446 
  76   2.0000      -0.470913       -12.8142 
  77   2.0000      -0.468194       -12.7402 
  78   2.0000      -0.458186       -12.4679 
  79   2.0000      -0.454852       -12.3771 
  80   2.0000      -0.451872       -12.2961 
  81   2.0000      -0.448452       -12.2030 
  82   2.0000      -0.438298       -11.9267 
  83   2.0000      -0.432924       -11.7805 
  84   2.0000      -0.430544       -11.7157 
  85   2.0000      -0.429269       -11.6810 
  86   2.0000      -0.427008       -11.6195 
  87   2.0000      -0.422846       -11.5062 
  88   2.0000      -0.415945       -11.3185 
  89   2.0000      -0.414713       -11.2849 
  90   2.0000      -0.411391       -11.1945 
  91   2.0000      -0.399768       -10.8782 
  92   2.0000      -0.398172       -10.8348 
  93   2.0000      -0.387209       -10.5365 
  94   2.0000      -0.377548       -10.2736 
  95   2.0000      -0.376218       -10.2374 
  96   2.0000      -0.372941       -10.1483 
  97   2.0000      -0.354905        -9.6575 
  98   2.0000      -0.354501        -9.6465 
  99   2.0000      -0.352004        -9.5785 
 100   2.0000      -0.347588        -9.4583 
 101   2.0000      -0.342712        -9.3257 
 102   2.0000      -0.323209        -8.7950 
 103   2.0000      -0.321911        -8.7596 
 104   2.0000      -0.316031        -8.5996 
 105   2.0000      -0.305751        -8.3199 
 106   2.0000      -0.304875        -8.2961 
 107   2.0000      -0.290602        -7.9077 
 108   2.0000      -0.281631        -7.6636 
 109   2.0000      -0.277895        -7.5619 
 110   2.0000      -0.266987        -7.2651 
 111   2.0000      -0.260343        -7.0843 
[...]
138:   3204.92   0.000795    4.02  0.000077  ( 0.008064 -0.001222  0.003293)
139:   3207.79   0.002043   10.32  0.000199  (-0.004637  0.013219 -0.001569)
140:   3213.67   0.000577    2.91  0.000056  (-0.006990  0.000877 -0.002526)
141:   3225.56   0.000729    3.69  0.000071  ( 0.006641  0.004526  0.002446)
142:   3281.00   0.005184   26.20  0.000493  (-0.018730 -0.010163 -0.006246)
143:   3294.85   0.011730   59.28  0.001111  (-0.002794  0.033206 -0.000734)

* The epsilon (eps) is given for a Dirac delta lineshape.
** The dipole moment derivative (T) already includes vibrational overlap.

The first frequency considered to be a vibration is 6
The total number of vibrations considered is 138


--------------------------
THERMOCHEMISTRY AT 298.15K
--------------------------

Temperature         ...   298.15 K
Pressure            ...     1.00 atm
Total Mass          ...   449.48 AMU
Quasi RRHO          ...     True
Cut-Off Frequency   ...     1.00 cm^-1

Throughout the following assumptions are being made:
  (1) The electronic state is orbitally nondegenerate
  (2) There are no thermally accessible electronically excited states
  (3) Hindered rotations indicated by low frequency modes are not
      treated as such but are treated as vibrations and this may
      cause some error
  (4) All equations used are the standard statistical mechanics
      equations for an ideal gas
  (5) All vibrations are strictly harmonic

freq.      10.80  E(vib)   ...       0.58 
freq.      21.78  E(vib)   ...       0.56 
freq.      27.81  E(vib)   ...       0.55 
freq.      43.91  E(vib)   ...       0.53 
freq.      48.38  E(vib)   ...       0.53 
freq.      59.74  E(vib)   ...       0.51 
freq.      69.73  E(vib)   ...       0.50 
freq.      81.08  E(vib)   ...       0.48 
freq.     101.19  E(vib)   ...       0.46 
freq.     107.41  E(vib)   ...       0.45 
freq.     135.62  E(vib)   ...       0.42 
freq.     157.13  E(vib)   ...       0.40 
freq.     166.31  E(vib)   ...       0.39 
freq.     174.22  E(vib)   ...       0.38 
freq.     188.19  E(vib)   ...       0.36 
freq.     196.55  E(vib)   ...       0.36 
freq.     226.18  E(vib)   ...       0.33 
freq.     250.17  E(vib)   ...       0.31 
freq.     277.19  E(vib)   ...       0.28 
freq.     288.46  E(vib)   ...       0.27 
freq.     289.33  E(vib)   ...       0.27 
freq.     317.58  E(vib)   ...       0.25 
freq.     351.31  E(vib)   ...       0.23 
freq.     365.29  E(vib)   ...       0.22 
freq.     371.55  E(vib)   ...       0.21 
freq.     390.95  E(vib)   ...       0.20 
freq.     411.91  E(vib)   ...       0.19 
freq.     422.12  E(vib)   ...       0.18 
freq.     424.37  E(vib)   ...       0.18 
freq.     434.84  E(vib)   ...       0.17 
freq.     443.17  E(vib)   ...       0.17 
freq.     486.24  E(vib)   ...       0.15 
freq.     508.28  E(vib)   ...       0.14 
freq.     520.50  E(vib)   ...       0.13 
freq.     555.09  E(vib)   ...       0.12 
freq.     559.37  E(vib)   ...       0.12 
freq.     568.70  E(vib)   ...       0.11 
freq.     578.71  E(vib)   ...       0.11 
freq.     604.91  E(vib)   ...       0.10 
freq.     620.12  E(vib)   ...       0.09 
freq.     621.33  E(vib)   ...       0.09 
freq.     631.90  E(vib)   ...       0.09 
freq.     649.26  E(vib)   ...       0.08 
freq.     685.95  E(vib)   ...       0.07 
freq.     693.72  E(vib)   ...       0.07 
freq.     710.94  E(vib)   ...       0.07 
freq.     717.79  E(vib)   ...       0.07 
freq.     722.13  E(vib)   ...       0.07 
freq.     722.93  E(vib)   ...       0.07 
freq.     737.75  E(vib)   ...       0.06 
freq.     761.67  E(vib)   ...       0.06 
freq.     774.59  E(vib)   ...       0.05 
freq.     778.58  E(vib)   ...       0.05 
freq.     804.54  E(vib)   ...       0.05 
freq.     805.02  E(vib)   ...       0.05 
freq.     811.17  E(vib)   ...       0.05 
freq.     814.26  E(vib)   ...       0.05 
freq.     829.24  E(vib)   ...       0.04 
freq.     849.48  E(vib)   ...       0.04 
freq.     853.76  E(vib)   ...       0.04 
freq.     869.82  E(vib)   ...       0.04 
freq.     870.32  E(vib)   ...       0.04 
freq.     888.55  E(vib)   ...       0.04 
freq.     907.41  E(vib)   ...       0.03 
freq.     914.21  E(vib)   ...       0.03 
freq.     956.40  E(vib)   ...       0.03 
freq.     959.21  E(vib)   ...       0.03 
freq.     990.46  E(vib)   ...       0.02 
freq.     995.96  E(vib)   ...       0.02 
freq.    1011.79  E(vib)   ...       0.02 
freq.    1012.70  E(vib)   ...       0.02 
freq.    1015.20  E(vib)   ...       0.02 
freq.    1022.23  E(vib)   ...       0.02 
freq.    1034.65  E(vib)   ...       0.02 
freq.    1034.77  E(vib)   ...       0.02 
freq.    1037.92  E(vib)   ...       0.02 
freq.    1039.23  E(vib)   ...       0.02 
freq.    1040.84  E(vib)   ...       0.02 
freq.    1055.44  E(vib)   ...       0.02 
freq.    1063.50  E(vib)   ...       0.02 
freq.    1069.24  E(vib)   ...       0.02 
freq.    1099.75  E(vib)   ...       0.02 
freq.    1104.80  E(vib)   ...       0.02 
freq.    1113.77  E(vib)   ...       0.01 
freq.    1151.71  E(vib)   ...       0.01 
freq.    1161.00  E(vib)   ...       0.01 
freq.    1166.18  E(vib)   ...       0.01 
freq.    1184.63  E(vib)   ...       0.01 
freq.    1202.68  E(vib)   ...       0.01 
freq.    1226.60  E(vib)   ...       0.01 
freq.    1232.50  E(vib)   ...       0.01 
freq.    1239.57  E(vib)   ...       0.01 
freq.    1256.72  E(vib)   ...       0.01 
freq.    1262.79  E(vib)   ...       0.01 
freq.    1284.47  E(vib)   ...       0.01 
freq.    1309.36  E(vib)   ...       0.01 
freq.    1322.31  E(vib)   ...       0.01 
freq.    1331.42  E(vib)   ...       0.01 
freq.    1361.90  E(vib)   ...       0.01 
freq.    1386.70  E(vib)   ...       0.00 
freq.    1398.43  E(vib)   ...       0.00 
freq.    1402.84  E(vib)   ...       0.00 
freq.    1429.65  E(vib)   ...       0.00 
freq.    1438.61  E(vib)   ...       0.00 
freq.    1446.63  E(vib)   ...       0.00 
freq.    1462.61  E(vib)   ...       0.00 
freq.    1477.06  E(vib)   ...       0.00 
freq.    1482.13  E(vib)   ...       0.00 
freq.    1489.36  E(vib)   ...       0.00 
freq.    1499.00  E(vib)   ...       0.00 
freq.    1536.63  E(vib)   ...       0.00 
freq.    1546.83  E(vib)   ...       0.00 
freq.    1566.20  E(vib)   ...       0.00 
freq.    1574.96  E(vib)   ...       0.00 
freq.    1607.41  E(vib)   ...       0.00 
freq.    1612.58  E(vib)   ...       0.00 
freq.    1632.44  E(vib)   ...       0.00 
freq.    1638.68  E(vib)   ...       0.00 
freq.    1654.79  E(vib)   ...       0.00 
freq.    1660.15  E(vib)   ...       0.00 
freq.    1674.98  E(vib)   ...       0.00 
freq.    1766.10  E(vib)   ...       0.00 
freq.    1784.40  E(vib)   ...       0.00 
freq.    2968.25  E(vib)   ...       0.00 
freq.    3178.12  E(vib)   ...       0.00 
freq.    3178.88  E(vib)   ...       0.00 
freq.    3186.21  E(vib)   ...       0.00 
freq.    3186.62  E(vib)   ...       0.00 
freq.    3190.07  E(vib)   ...       0.00 
freq.    3194.55  E(vib)   ...       0.00 
freq.    3198.24  E(vib)   ...       0.00 
freq.    3201.70  E(vib)   ...       0.00 
freq.    3204.92  E(vib)   ...       0.00 
freq.    3207.79  E(vib)   ...       0.00 
freq.    3213.67  E(vib)   ...       0.00 
freq.    3225.56  E(vib)   ...       0.00 
freq.    3281.00  E(vib)   ...       0.00 
freq.    3294.85  E(vib)   ...       0.00 

------------
INNER ENERGY
------------

The inner energy is: U= E(el) + E(ZPE) + E(vib) + E(rot) + E(trans)
    E(el)   - is the total energy from the electronic structure calculation
              = E(kin-el) + E(nuc-el) + E(el-el) + E(nuc-nuc)
    E(ZPE)  - the the zero temperature vibrational energy from the frequency calculation
    E(vib)  - the the finite temperature correction to E(ZPE) due to population
              of excited vibrational states
    E(rot)  - is the rotational thermal energy
    E(trans)- is the translational thermal energy

Summary of contributions to the inner energy U:
Electronic energy                ...  -1786.09520079 Eh
Zero point energy                ...      0.35246410 Eh     221.17 kcal/mol
Thermal vibrational correction   ...      0.02224109 Eh      13.96 kcal/mol
Thermal rotational correction    ...      0.00141627 Eh       0.89 kcal/mol
Thermal translational correction ...      0.00141627 Eh       0.89 kcal/mol
-----------------------------------------------------------------------
Total thermal energy                  -1785.71766306 Eh


Summary of corrections to the electronic energy:
(perhaps to be used in another calculation)
Total thermal correction                  0.02507363 Eh      15.73 kcal/mol
Non-thermal (ZPE) correction              0.35246410 Eh     221.17 kcal/mol
-----------------------------------------------------------------------
Total correction                          0.37753774 Eh     236.91 kcal/mol


--------
ENTHALPY
--------

The enthalpy is H = U + kB*T
                kB is Boltzmann's constant
Total thermal energy              ...  -1785.71766306 Eh 
Thermal Enthalpy correction       ...      0.00094421 Eh       0.59 kcal/mol
-----------------------------------------------------------------------
Total Enthalpy                    ...  -1785.71671885 Eh


Note: Only C1 symmetry has been detected, increase convergence thresholds 
      if your molecule has a higher symmetry. Symmetry factor of 1.0 is   
      used for the rotational entropy correction. 
 

Note: Rotational entropy computed according to Herzberg 
Infrared and Raman Spectra, Chapter V,1, Van Nostrand Reinhold, 1945 
Point Group:  C1, Symmetry Number:   1  
Rotational constants in cm-1:     0.008229     0.001659     0.001387 

Vibrational entropy computed according to the QRRHO of S. Grimme
Chem.Eur.J. 2012 18 9955 using a reference frequency of 100.0 cm-1


-------
ENTROPY
-------

The entropy contributions are T*S = T*(S(el)+S(vib)+S(rot)+S(trans))
     S(el)   - electronic entropy
     S(vib)  - vibrational entropy
     S(rot)  - rotational entropy
     S(trans)- translational entropy
The entropies will be listed as multiplied by the temperature to get
units of energy

Electronic entropy                ...      0.00000000 Eh      0.00 kcal/mol
Vibrational entropy               ...      0.03960492 Eh     24.85 kcal/mol
Rotational entropy                ...      0.01790545 Eh     11.24 kcal/mol
Translational entropy             ...      0.02099980 Eh     13.18 kcal/mol
-----------------------------------------------------------------------
Final entropy term                ...      0.07851018 Eh     49.27 kcal/mol

In case the symmetry of your molecule has not been determined correctly
or in case you have a reason to use a different symmetry number we print 
out the resulting rotational entropy values for sn=1,12:

 non-linear molecules -----------------------------------
|  sn= 1 | S(rot)=       0.01790545 Eh     11.24 kcal/mol|
|  sn= 2 | S(rot)=       0.01725100 Eh     10.83 kcal/mol|
|  sn= 3 | S(rot)=       0.01686816 Eh     10.58 kcal/mol|
|  sn= 4 | S(rot)=       0.01659654 Eh     10.41 kcal/mol|
|  sn= 5 | S(rot)=       0.01638585 Eh     10.28 kcal/mol|
|  sn= 6 | S(rot)=       0.01621371 Eh     10.17 kcal/mol|
|  sn= 7 | S(rot)=       0.01606816 Eh     10.08 kcal/mol|
|  sn= 8 | S(rot)=       0.01594208 Eh     10.00 kcal/mol|
|  sn= 9 | S(rot)=       0.01583088 Eh      9.93 kcal/mol|
|  sn=10 | S(rot)=       0.01573140 Eh      9.87 kcal/mol|
|  sn=11 | S(rot)=       0.01564141 Eh      9.82 kcal/mol|
|  sn=12 | S(rot)=       0.01555925 Eh      9.76 kcal/mol|
 linear molecules ---------------------------------------
|  Dinfh | S(rot)=       0.01153878 Eh      7.24 kcal/mol|
|  Cinfv | S(rot)=       0.01219324 Eh      7.65 kcal/mol|
 --------------------------------------------------------


-------------------
GIBBS FREE ENERGY
-------------------

The Gibbs free energy is G = H - T*S

Total enthalpy                    ...  -1785.71671885 Eh 
Total entropy correction          ...     -0.07851018 Eh    -49.27 kcal/mol
-----------------------------------------------------------------------
Final Gibbs free energy         ...  -1785.79522902 Eh

For completeness - the Gibbs free energy minus the electronic energy
G-E(el)                           ...      0.29997177 Eh    188.23 kcal/mol


Maximum memory used throughout the entire PROP-calculation: 360.7 MB

--------------------------------
SUGGESTED CITATIONS FOR THIS RUN
--------------------------------

Below you find a list of papers that are relevant to this ORCA run
We neither can nor want to force you to cite these papers, but we appreciate if you do
You receive ORCA, which is the product of decades of hard work by many enthusiastic individuals, for free
The only thing we kindly ask in return is that you cite our papers,
We deeply appreciate it, if you show your appreciation for ORCA by not just citing the generic ORCA reference.

Please note that relegating all ORCA citations to the supporting information does *not* help us.
SI sections are not indexed - citations you put there will not count into any citation statistics
But we need these citations in order to attract the funding resources that allow us to do what we are doing

Therefore, if you are a happy ORCA user, please consider citing a few of the papers listed below in the main body of your paper

In addition to the list printed below, the program has created the file input\CMR_GOLD_020_optfreq.bibtex that contains the list in bibtex format
You can import this file easily into all common literature databanks and citation aid programs

It goes without saying that in many instances, there are alternative algorithms to achieve similar
results as the ones you have gotten from ORCA. It is, of course, also the case that in some instances
ORCA just re-implements algorithms worked out by others. We are fully aware of that and we are also
fully appreciative of our colleagues work. Hence this citation list should not be read as indicating
that the listed papers, which are focused on our own work, are the only ones worth citing. It simply
meant to make it easier for users to cite ORCA specific papers. It is not a substitute for doing your
own literature research and citing the relevant literature in a scientifically appropriate manner.

List of essential papers. We consider these as the minimum necessary citations

  1. Neese, F.
     Software update: the ORCA program system, version 6.0
     WIRES Comput. Molec. Sci. 2025 15(1), e70019
     doi.org/10.1002/wcms.70019

List of papers to cite with high priority. The work reported in these papers was absolutely
necessary for this run to complete.
Our perspective: the developers of density functionals and basis sets usually get cited in chemistry papers
Good! But without the algorithms to do something with them, the functionals or basis sets would not do anything.
Hence, in our opinion, the algorithm design and method developments papers are equally worthy of getting cited

  1. Neese, F.
     An improvement of the resolution of the identity approximation for the formation of the Coulomb matrix
     J. Comp. Chem. 2003 24(14), 1740-1747
     doi.org/10.1002/jcc.10318
  2. Neese, F.; Wennmohs, F.; Hansen, A.; Becker, U.
     Efficient, approximate and parallel Hartree-Fock and hybrid DFT calculations. A 'chain-of-spheres' algorithm for the Hartree-Fock exchange
     Chem. Phys. 2009 356(1-3), 98-109
     doi.org/10.1016/j.chemphys.2008.10.036
  3. Grimme, S.; Antony, J.; Ehrlich, S.; Krieg, H.
     A consistent and accurate ab initio parametrization of density functional dispersion correction (DFT-D) for the 94 elements H-Pu
     J. Chem. Phys. 2010 132 , 154104
     doi.org/10.1063/1.3382344
  4. Grimme, S.; Ehrlich, S.; Goerigk, L.
     Effect of the damping function in dispersion corrected density functional theory
     J. Comput. Chem. 2011 32(7), 1456-1465
     doi.org/10.1002/jcc.21759
  5. Bykov, D.; Petrenko, T.; Izsak, R.; Kossmann, S.; Becker, U.; Valeev, E.; Neese, F.
     Efficient implementation of the analytic second derivatives of Hartree-Fock and hybrid DFT energies: a detailed analysis of different approximations
     Molec. Phys. 2015 113 , 1961-1977
     doi.org/10.1080/00268976.2015.1025114
  6. Garcia-Rates, M.; Neese, F.
     Efficient implementation of the analytical second derivatives of hartree-fock and hybrid DFT energies within the framework of the conductor-like polarizable continuum model
     J. Comput. Chem. 2019 40 , 1816-1828
     doi.org/10.1002/jcc.25833
  7. Garcia-Rates, M.; Neese, F.
     Effect of the Solute Cavity on the Solvation Energy and its Derivatives within the Framework of the Gaussian Charge Scheme
     J. Comput. Chem. 2020 41 , 922-939
     doi.org/10.1002/jcc.26139
  8. Helmich-Paris, B.; de Souza, B.; Neese, F.; Izsák, R.
     An improved chain of spheres for exchange algorithm
     J. Chem. Phys. 2021 155(10), 104109
     doi.org/10.1063/5.0058766
  9. Neese, F.
     The SHARK Integral Generation and Digestion System
     J. Comp. Chem. 2022 44(3), 381
     doi.org/10.1002/jcc.26942

List of suggested additional citations. These are papers that are important in the 'surrounding' of 
of this run, or papers that preceded the highly important papers. If you like your results we are grateful for a citation.

  1. Izsak, R.; Neese, F.
     An overlap fitted chain of spheres exchange method
     J. Chem. Phys. 2011 135 , 144105
     doi.org/10.1063/1.3646921
  2. Izsak, R.; Hansen, A.; Neese, F.
     The resolution of identity and chain of spheres approximations for the LPNO-CCSD singles Fock term
     Molec. Phys. 2012 110 , 2413-2417
     doi.org/10.1080/00268976.2012.687466
  3. Neese, F.
     The ORCA program system
     WIRES Comput. Molec. Sci. 2012 2(1), 73-78
     doi.org/10.1002/wcms.81
  4. Izsak, R.; Neese, F.; Klopper, W.
     Robust fitting techniques in the chain of spheres approximation to the Fock exchange: The role of the complementary space
     J. Chem. Phys. 2013 139 , 
     doi.org/10.1063/1.4819264
  5. Neese, F.
     Software update: the ORCA program system, version 4.0
     WIRES Comput. Molec. Sci. 2018 8(1), 1-6
     doi.org/10.1002/wcms.1327
  6. Neese, F.; Wennmohs, F.; Becker, U.; Riplinger, C.
     The ORCA quantum chemistry program package
     J. Chem. Phys. 2020 152(22), 224108
     doi.org/10.1063/5.0004608
  7. Neese, F.
     Software update: The ORCA program system—Version 5.0
     WIRES Comput. Molec. Sci. 2022 12(1), e1606
     doi.org/10.1002/wcms.1606

List of optional additional citations

  1. Neese, F.
     Approximate second-order SCF convergence for spin unrestricted wavefunctions
     Chem. Phys. Lett. 2000 325(1-3), 93-98
     doi.org/10.1016/s0009-2614(00)00662-x

Timings for individual modules:

Sum of individual times          ...     2022.623 sec (=  33.710 min)
Startup calculation              ...       28.010 sec (=   0.467 min)   1.4 %
SCF iterations                   ...      566.541 sec (=   9.442 min)  28.0 %
Property integrals               ...      260.092 sec (=   4.335 min)  12.9 %
SCF Response                     ...      547.113 sec (=   9.119 min)  27.0 %
Property calculations            ...      359.242 sec (=   5.987 min)  17.8 %
SCF Gradient evaluation          ...      261.177 sec (=   4.353 min)  12.9 %
Geometry relaxation              ...        0.448 sec (=   0.007 min)   0.0 %
                             ****ORCA TERMINATED NORMALLY****
TOTAL RUN TIME: 0 days 0 hours 33 minutes 46 seconds 467 msec
