
                                 *****************
                                 * O   R   C   A *
                                 *****************

                                            #,                                       
                                            ###                                      
                                            ####                                     
                                            #####                                    
                                            ######                                   
                                           ########,                                 
                                     ,,################,,,,,                         
                               ,,#################################,,                 
                          ,,##########################################,,             
                       ,#########################################, ''#####,          
                    ,#############################################,,   '####,        
                  ,##################################################,,,,####,       
                ,###########''''           ''''###############################       
              ,#####''   ,,,,##########,,,,          '''####'''          '####       
            ,##' ,,,,###########################,,,                        '##       
           ' ,,###''''                  '''############,,,                           
         ,,##''                                '''############,,,,        ,,,,,,###''
      ,#''                                            '''#######################'''  
     '                                                          ''''####''''         
             ,#######,   #######,   ,#######,      ##                                
            ,#'     '#,  ##    ##  ,#'     '#,    #''#        ,####,    ,#,          
            ##       ##  ##   ,#'  ##            #'  '#       #'       ,# #          
            ##       ##  #######   ##           ,######,      #####,      #          
            '#,     ,#'  ##    ##  '#,     ,#' ,#      #,     #,   #      #          
             '#######'   ##     ##  '#######'  #'      '#     '####' #    #          



                #########################################################
                #                        -***-                          #
                #          Department of theory and spectroscopy        #
                #                                                       #
                #                      Frank Neese                      #
                #                                                       #
                #     Directorship, Architecture, Infrastructure        #
                #                    SHARK, DRIVERS                     #
                #        Core code/Algorithms in most modules           #
                #                                                       #
                #        Max Planck Institute fuer Kohlenforschung      #
                #                Kaiser Wilhelm Platz 1                 #
                #                 D-45470 Muelheim/Ruhr                 #
                #                      Germany                          #
                #                                                       #
                #                  All rights reserved                  #
                #                        -***-                          #
                #########################################################


                         Program Version 6.1.1  -  RELEASE   -


 With contributions from (in alphabetic order):
[Max-Planck-Institut fuer Kohlenforschung]                               
  Daniel Aravena         : Magnetic Suceptibility                        
  Michael Atanasov       : Ab Initio Ligand Field Theory (pilot matlab implementation)
  Alexander A. Auer      : GIAO ZORA, VPT2 properties, NMR spectrum      
  Ute Becker             : All parallelization in ORCA, NUMFREQ, NUMCALC 
  Giovanni Bistoni       : ED, misc. LED, open-shell LED, HFLD           
  Dmytro Bykov           : pre 5.0 version of the SCF Hessian            
  Marcos Casanova-Páez   : Triplet and SCS-CIS(D). UHF-(DLPNO)-IP/EA/STEOM-CCSD. UHF-CVS-IP/STEOM-CCSD   
  Vijay G. Chilkuri      : MRCI spin determinant printing, contributions to CSF-ICE 
  Pauline Colinet        : FMM embedding                                 
  Dipayan Datta          : RHF DLPNO-CCSD density                        
  Achintya Kumar Dutta   : EOM-CC, STEOM-CC                              
  Nicolas Foglia         : Exact transition moments, OPA infrastructure, MCD improvements    
  Dmitry Ganyushin       : Spin-Orbit,Spin-Spin,Magnetic field MRCI      
  Miquel Garcia-Rates    : C-PCM and meta-GGA Hessian, CCSD/C-PCM, Gaussian charge scheme 
  Tiago L. C. Gouveia    : GS-ROHF, GS-ROCIS                             
  Yang Guo               : DLPNO-NEVPT2, F12-NEVPT2, CIM, IAO-localization        
  Andreas Hansen         : Spin unrestricted coupled pair/coupled cluster methods 
  Ingolf Harden          : AUTO-CI MPn and infrastructure                
  Benjamin Helmich-Paris : MC-RPA, TRAH-(SCF,CASSCF), AVAS, COSX integrals, SCF dyn. polar., MC-PDFT, srDFT 
  Lee Huntington         : MR-EOM, pCC                                   
  Robert Izsak           : Overlap fitted RIJCOSX, COSX-SCS-MP3, EOM     
  Riya Kayal             : Wick's Theorem for AUTO-CI, AUTO-CI UHF-CCSDT 
  Emily Kempfer          : AUTO-CI RHF CISDT and CCSDT, approximate NEVPT4
  Christian Kollmar      : KDIIS, OOCD, Brueckner-CCSD(T), CCSD density, CASPT2, CASPT2-K, improved NEVPT2 
  Axel Koslowski         : Symmetry handling                             
  Simone Kossmann        : meta-GGA functionals, TD-DFT gradient, OOMP2, (MP2 Hessian; deprecated post 5.0) 
  Lucas Lang             : DCDCAS, Hyperfine gauge corrections, ICE-SOC+SSC
  Marvin Lechner         : AUTO-CI (C++ implementation), FIC-MRCC        
  Spencer Leger          : CASSCF response                               
  Dagmar Lenk            : GEPOL surface, SMD, ORCA-2-JSON               
  Dimitrios Liakos       : Extrapolation schemes; Compound Job, Property file
  Dimitrios Manganas     : Further ROCIS development; embedding schemes. LFT, Crystal Embedding 
  Dimitrios Pantazis     : SARC Basis sets                               
  Anastasios Papadopoulos: AUTO-CI, single reference methods and gradients 
  Taras Petrenko         : pre 6.0 DFT Hessian and TD-DFT gradient,  ECA, NRVS 
  Petra Pikulova         : Analytic Raman intensities                    
  Peter Pinski           : DLPNO-MP2, DLPNO-MP2 Gradient                 
  Shashank Vittal Rao    : ES-AILFT, MagRelax                            
  Christoph Reimann      : Effective Core Potentials                     
  Marius Retegan         : Local ZFS, SOC                                
  Christoph Riplinger    : Optimizer, TS searches, QM/MM, DLPNO-CCSD(T), (RO)-DLPNO pert. Triples 
  Michael Roemelt        : Original ROCIS implementation, recursive CI coupling coefficients
  Masaaki Saitow         : Open-shell DLPNO-CCSD energy and density      
  Barbara Sandhoefer     : DKH picture change effects                    
  Yorick L. A. Schmerwitz: GMF and freeze-and-release deltaSCF, NEB S-IDPP initial path                    
  Kantharuban Sivalingam : CASSCF convergence/infrastructure, NEVPT2, NEVPT3, NEVPT4(SD), FIC-MRCI and CEPA variants
  Bernardo de Souza      : ESD, SOC TD-DFT                               
  Georgi L. Stoychev     : AutoAux, RI-MP2 NMR, DLPNO-MP2 response, X2C  
  Van Anh Tran           : RI-MP2 g-tensors                              
  Willem Van den Heuvel  : Paramagnetic NMR                              
  Zikuan Wang            : NOTCH, Electric field optimization            
  Frank Wennmohs         : Technical directorship and infrastructure     
  Hang Xu                : AUTO-CI-Response properties                   
                                                                         
[FACCTs GmbH]                                                            
  Markus Bursch, Nicolas Foglia, Miquel Garcia-Rates, Ingolf Harden, Hagen Neugebauer, Anastasios Papadopoulos, 
  Christoph Riplinger, Bernardo de Souza, Georgi L. Stoychev                                                    
                                                                 
  APM, various basis sets, CI-OPT, improved COSX, DLPNO-Multilevel,           
  DOCKER, DRACO, updates on ESD, Fragmentator, GOAT, IRC, LR-CPCM, L-BFGS, MBIS, meta-GGA TD-DFT gradient, ML-optimized integration grids, 
  MM, NACMEs, nearIR, NEB, NEB-TS, NL-DFT gradient (VV10), 2- and 3-layer-ONIOM, interface openCOSMO-RS, QMMM,   
  Crystal-QMMM, RESP, rigid body optimization, SF, symmetry and pop. for TD-DFT, various functionals, SOLVATOR                                   
                                                                         
[Other institutions]                                                     
  V. Asgeirsson          : NEB                                           
  Christoph Bannwarth    : sTDA-DFT, sTD-DFT, PBEh-3c, B97-3c, D3        
  Giovanni Bistoni       : ETS/NOCV, ADLD/ADEX, COVALED                  
  Martin Brehm           : Molecular dynamics                            
  Ronald Cardenas        : ETS/NOCV                                      
  Martina Colucci        : COVALED                                       
  Sebastian Ehlert       : rSCAN, r2SCAN, r2SCAN-3c, D4, dhf basis sets  
  Marvin Friede          : D4 for Fr, Ra, Ac-Lr                          
  Lars Goerigk           : TD-DFT with DH, B97 family of functionals     
  Stefan Grimme          : VdW corrections, initial TS optimization, DFT functionals, gCP, sTDA/sTD-DF 
  Waldemar Hujo          : DFT-NL                                        
  H. Jonsson             : NEB                                           
  Holger Kruse           : gCP                                           
  Marcel Mueller         : wB97X-3c, vDZP basis set                      
  Hagen Neugebauer       : wr2SCAN, Native XTB                           
  Gianluca Regni         : ADLD/ADEX                                     
  Tobias Risthaus        : pre 6.0 range-separated hybrid DFT and stability analysis
  Lukas Wittmann         : regularized MP2, r2SCAN double-hybrids, wr2SCAN        
                                                                         
We gratefully acknowledge several colleagues who have allowed us to      
interface, adapt or use parts of their codes:                            
  Ed Valeev, F. Pavosevic, A. Kumar             : LibInt (2-el integral package), F12 methods 
  Garnet Chan, S. Sharma, J. Yang, R. Olivares  : DMRG                   
  Ulf Ekstrom                                   : XCFun DFT Library      
  Mihaly Kallay                                 : mrcc  (arbitrary order and MRCC methods)
  Frank Weinhold                                : gennbo (NPA and NBO analysis)           
  Simon Mueller                                 : openCOSMO-RS                            
  Christopher J. Cramer and Donald G. Truhlar   : smd solvation model                     
  S Lehtola, MJT Oliveira, MAL Marques          : LibXC Library                           
  Liviu Ungur et al                             : ANISO software                          


 Your calculation uses the libint2 library for the computation of 2-el integrals
 For citations please refer to: http://libint.valeyev.net

 Your ORCA version has been built with support for libXC version: 7.0.0
 For citations please refer to: https://libxc.gitlab.io

 This ORCA versions uses:
   CBLAS   interface :  Fast vector & matrix operations
   LAPACKE interface :  Fast linear algebra routines
   Shared memory     :  Shared parallel matrices


  ***********************************
  * Starting time: Tue Jun  2 11:02:50 2026
  * Host name:     AHMET
  * Process ID:    1584
  * Working dir.:  D:\Makaleler\coumarin-logp-working-source\dft\molecules\CMR_GOLD_016
  ***********************************

NOTE: MaxCore=3000 MB was set to SCF,MP2,MDCI,CIPSI,MRCI,RASCI and CIS
      => If you want to overwrite this, your respective input block should be placed after the MaxCore statement


***************************************
The coordinates will be read from file: input/CMR_GOLD_016_start.xyz
***************************************


Your calculation utilizes the atom-pairwise dispersion correction
with the Becke-Johnson damping scheme (D3BJ)


================================================================================

----- Orbital basis set information -----
Your calculation utilizes the basis: def2-SVP
   F. Weigend and R. Ahlrichs, Phys. Chem. Chem. Phys. 7, 3297 (2005).

----- AuxJ basis set information -----
Your calculation utilizes the auxiliary basis: def2/J
   H-Rn: F. Weigend, Phys. Chem. Chem. Phys. 8, 1057 (2006).
   Fr-Lr: K. Eichkorn, F. Weigend, O. Treutler, R. Ahlrichs; Theor. Chem. Acc. 97, 119 (1997).

================================================================================
                                        WARNINGS
                       Please study these warnings very carefully!
================================================================================


WARNING: Geometry Optimization
  ===> : Switching off AutoStart
         For restart on a previous wavefunction, please use MOREAD

================================================================================
                                       INPUT FILE
================================================================================
NAME = D:\Makaleler\coumarin-logp-working-source\dft\molecules\CMR_GOLD_016\input\CMR_GOLD_016_optfreq.inp
|  1> ! B3LYP D3BJ def2-SVP TightSCF RIJCOSX def2/J CPCM(Water) Opt Freq

|  2> 

|  3> %pal

|  4>   nprocs 8

|  5> end

|  6> 

|  7> %maxcore 3000

|  8> 

|  9> %scf

| 10>   MaxIter 500

| 11> end

| 12> 

| 13> %output

| 14>   Print[P_Mulliken] 1

| 15>   Print[P_Loewdin] 1

| 16> end

| 17> 

| 18> * xyzfile 0 1 input/CMR_GOLD_016_start.xyz

| 19> 
| 20>                          ****END OF INPUT****
================================================================================

                       *****************************
                       * Geometry Optimization Run *
                       *****************************

Geometry optimization settings:
Update method            Update   .... BFGS
Choice of coordinates    CoordSys .... (2022) Redundant Internals
Initial Hessian          InHess   .... Almloef's Model
Max. no of cycles        MaxIter  .... 138

Convergence Tolerances:
Energy Change            TolE     ....  5.0000e-06 Eh
Max. Gradient            TolMAXG  ....  3.0000e-04 Eh/bohr
RMS Gradient             TolRMSG  ....  1.0000e-04 Eh/bohr
Max. Displacement        TolMAXD  ....  4.0000e-03 bohr
RMS Displacement         TolRMSD  ....  2.0000e-03 bohr
Strict Convergence                .... False

------------------------------------------------------------------------------
                        ORCA OPTIMIZATION COORDINATE SETUP
------------------------------------------------------------------------------

The optimization will be done in redundant internal coordinates (2022)
Making redundant internal coordinates   ...  (2022 redundants) done
Evaluating the initial hessian          ...  (Almloef) done
Evaluating the coordinates              ...  done
Calculating the B-matrix                .... done
Calculating the G-matrix                .... done
The number of degrees of freedom        ....  241

    -----------------------------------------------------------------
                    Redundant Internal Coordinates


    -----------------------------------------------------------------
         Definition                    Initial Value    Approx d2E/dq
    -----------------------------------------------------------------
      1. B(C   1,O   0)                  1.2310         1.003463   
      2. B(C   2,C   1)                  1.4865         0.438276   
      3. B(C   3,C   2)                  1.5198         0.387856   
      4. B(C   4,C   3)                  1.5411         0.358604   
      5. B(O   5,C   4)                  1.3656         0.611995   
      6. B(C   6,O   5)                  1.4326         0.478470   
      7. B(C   7,C   6)                  1.5160         0.393270   
      8. B(O   8,C   4)                  1.2246         1.027535   
      9. B(C   9,C   3)                  1.5183         0.389982   
     10. B(C  10,C   9)                  1.3453         0.736312   
     11. B(O  11,C  10)                  1.3803         0.579971   
     12. B(C  12,C  10)                  1.4620         0.479632   
     13. B(C  13,C  12)                  1.3999         0.602389   
     14. B(C  14,C  13)                  1.3992         0.604036   
     15. B(C  15,C  14)                  1.3950         0.613375   
     16. B(C  16,C  15)                  1.3926         0.618948   
     17. B(C  17,C  16)                  1.3947         0.614089   
     18. B(C  17,C  12)                  1.3905         0.623579   
     19. B(O  18,C  17)                  1.4035         0.532553   
     20. B(C  19,O  18)                  1.3834         0.573320   
     21. B(C  19,C   9)                  1.4844         0.441748   
     22. B(O  20,C  19)                  1.2297         1.008364   
     23. B(C  21,C   2)                  1.3454         0.736002   
     24. B(O  22,C  21)                  1.3783         0.584208   
     25. B(C  23,C  21)                  1.4626         0.478500   
     26. B(C  24,C  23)                  1.4001         0.601940   
     27. B(C  25,C  24)                  1.3992         0.604118   
     28. B(C  26,C  25)                  1.3948         0.613777   
     29. B(C  27,C  26)                  1.3925         0.619117   
     30. B(C  28,C  27)                  1.3948         0.613763   
     31. B(C  28,C  23)                  1.3902         0.624346   
     32. B(O  29,C  28)                  1.4030         0.533571   
     33. B(O  29,C   1)                  1.3823         0.575725   
     34. B(H  30,C   3)                  1.1009         0.345913   
     35. B(H  31,C   6)                  1.0955         0.352868   
     36. B(H  32,C   6)                  1.0958         0.352470   
     37. B(H  33,C   7)                  1.0935         0.355468   
     38. B(H  34,C   7)                  1.0951         0.353396   
     39. B(H  35,C   7)                  1.0950         0.353509   
     40. B(H  36,O   0)                  1.7667         0.026845   
     41. B(H  36,O  11)                  0.9831         0.477626   
     42. B(H  37,C  13)                  1.0881         0.362601   
     43. B(H  38,C  14)                  1.0875         0.363480   
     44. B(H  39,C  15)                  1.0870         0.364032   
     45. B(H  40,C  16)                  1.0861         0.365267   
     46. B(H  41,O  20)                  1.6345         0.043634   
     47. B(H  41,O  22)                  0.9851         0.474197   
     48. B(H  42,C  24)                  1.0883         0.362409   
     49. B(H  43,C  25)                  1.0875         0.363417   
     50. B(H  44,C  26)                  1.0871         0.363984   
     51. B(H  45,C  27)                  1.0861         0.365247   
     52. A(C   2,C   1,O  29)          118.5828         0.400125   
     53. A(O   0,C   1,O  29)          121.0650         0.461196   
     54. A(O   0,C   1,C   2)          120.3468         0.441815   
     55. A(C   1,C   2,C  21)          119.6230         0.420639   
     56. A(C   3,C   2,C  21)          127.4174         0.411591   
     57. A(C   1,C   2,C   3)          112.9176         0.375877   
     58. A(C   4,C   3,C   9)          112.6404         0.363481   
     59. A(C   2,C   3,C   9)          112.6543         0.368396   
     60. A(C   2,C   3,C   4)          115.3111         0.363141   
     61. A(C   4,C   3,H  30)           99.3456         0.320039   
     62. A(C   2,C   3,H  30)          107.9542         0.324176   
     63. A(C   9,C   3,H  30)          107.6996         0.324467   
     64. A(C   3,C   4,O   8)          125.1513         0.427966   
     65. A(C   3,C   4,O   5)          110.3517         0.390452   
     66. A(O   5,C   4,O   8)          124.3527         0.468409   
     67. A(C   4,O   5,C   6)          114.4358         0.408137   
     68. A(O   5,C   6,H  31)          109.5453         0.334697   
     69. A(O   5,C   6,H  32)          109.8754         0.334634   
     70. A(C   7,C   6,H  32)          109.7052         0.325920   
     71. A(H  31,C   6,H  32)          109.7668         0.288943   
     72. A(O   5,C   6,C   7)          108.0822         0.380136   
     73. A(C   7,C   6,H  31)          109.8421         0.325980   
     74. A(C   6,C   7,H  34)          110.5790         0.326061   
     75. A(C   6,C   7,H  33)          110.9166         0.326375   
     76. A(H  33,C   7,H  34)          108.8645         0.289395   
     77. A(C   6,C   7,H  35)          110.6180         0.326078   
     78. A(H  34,C   7,H  35)          106.8910         0.289144   
     79. A(H  33,C   7,H  35)          108.8609         0.289409   
     80. A(C  10,C   9,C  19)          119.7170         0.421263   
     81. A(C   3,C   9,C  19)          116.3433         0.376746   
     82. A(C   3,C   9,C  10)          123.9227         0.412021   
     83. A(O  11,C  10,C  12)          115.1700         0.407068   
     84. A(C   9,C  10,C  12)          120.8860         0.427509   
     85. A(C   9,C  10,O  11)          123.9369         0.439473   
     86. A(C  10,O  11,H  36)          110.0143         0.360630   
     87. A(C  10,C  12,C  13)          123.3094         0.412472   
     88. A(C  13,C  12,C  17)          118.1133         0.432270   
     89. A(C  10,C  12,C  17)          118.5737         0.415013   
     90. A(C  14,C  13,H  37)          119.0386         0.351767   
     91. A(C  12,C  13,C  14)          120.5695         0.429805   
     92. A(C  12,C  13,H  37)          120.3910         0.351604   
     93. A(C  13,C  14,C  15)          120.2142         0.431202   
     94. A(C  15,C  14,H  38)          120.0118         0.352825   
     95. A(C  13,C  14,H  38)          119.7737         0.351911   
     96. A(C  14,C  15,C  16)          119.8056         0.433096   
     97. A(C  16,C  15,H  39)          120.1195         0.353457   
     98. A(C  14,C  15,H  39)          120.0749         0.352916   
     99. A(C  15,C  16,C  17)          119.2227         0.433186   
    100. A(C  15,C  16,H  40)          120.3763         0.353659   
    101. A(C  17,C  16,H  40)          120.4010         0.353188   
    102. A(C  16,C  17,O  18)          116.9822         0.418934   
    103. A(C  12,C  17,O  18)          120.9390         0.420081   
    104. A(C  12,C  17,C  16)          122.0746         0.433768   
    105. A(C  17,O  18,C  19)          121.1613         0.411171   
    106. A(O  18,C  19,O  20)          121.0351         0.461254   
    107. A(C   9,C  19,O  20)          120.6097         0.442835   
    108. A(C   9,C  19,O  18)          118.3188         0.400386   
    109. A(O  22,C  21,C  23)          114.8740         0.407422   
    110. A(C   2,C  21,C  23)          120.8948         0.427296   
    111. A(C   2,C  21,O  22)          124.2117         0.440017   
    112. A(C  21,O  22,H  41)          109.7140         0.360635   
    113. A(C  24,C  23,C  28)          118.0664         0.432307   
    114. A(C  21,C  23,C  28)          118.6838         0.414930   
    115. A(C  21,C  23,C  24)          123.2494         0.412245   
    116. A(C  23,C  24,C  25)          120.6060         0.429758   
    117. A(C  25,C  24,H  42)          119.0084         0.351743   
    118. A(C  23,C  24,H  42)          120.3853         0.351529   
    119. A(C  24,C  25,C  26)          120.2065         0.431263   
    120. A(C  26,C  25,H  43)          120.0287         0.352854   
    121. A(C  24,C  25,H  43)          119.7648         0.351909   
    122. A(C  25,C  26,C  27)          119.7926         0.433168   
    123. A(C  27,C  26,H  44)          120.1430         0.353465   
    124. A(C  25,C  26,H  44)          120.0645         0.352947   
    125. A(C  26,C  27,C  28)          119.2303         0.433166   
    126. A(C  28,C  27,H  45)          120.4368         0.353153   
    127. A(C  26,C  27,H  45)          120.3328         0.353673   
    128. A(C  27,C  28,O  29)          116.9616         0.419037   
    129. A(C  23,C  28,O  29)          120.9394         0.420317   
    130. A(C  23,C  28,C  27)          122.0982         0.433822   
    131. A(C   1,O  29,C  28)          121.1453         0.411616   
    132. D(C  21,C   2,C   1,O   0)   -174.7813         0.013109   
    133. D(C   3,C   2,C   1,O  29)   -173.4333         0.013109   
    134. D(C   3,C   2,C   1,O   0)      7.4028         0.013109   
    135. D(C  21,C   2,C   1,O  29)      4.3826         0.013109   
    136. D(C   9,C   3,C   2,C  21)     95.5797         0.011198   
    137. D(H  30,C   3,C   2,C   1)     31.9759         0.011198   
    138. D(C   9,C   3,C   2,C   1)    -86.8109         0.011198   
    139. D(C   4,C   3,C   2,C   1)    141.9794         0.011198   
    140. D(C   4,C   3,C   2,C  21)    -35.6300         0.011198   
    141. D(O   8,C   4,C   3,C   9)      6.9628         0.010000   
    142. D(O   8,C   4,C   3,C   2)    138.1791         0.010000   
    143. D(O   5,C   4,C   3,H  30)     69.0104         0.010000   
    144. D(O   5,C   4,C   3,C   9)   -177.2560         0.010000   
    145. D(O   5,C   4,C   3,C   2)    -46.0397         0.010000   
    146. D(C   6,O   5,C   4,C   3)    178.8032         0.027428   
    147. D(C   6,O   5,C   4,O   8)     -5.3750         0.027428   
    148. D(H  32,C   6,O   5,C   4)    -56.3196         0.018057   
    149. D(H  31,C   6,O   5,C   4)     64.3403         0.018057   
    150. D(C   7,C   6,O   5,C   4)   -176.0026         0.018057   
    151. D(H  34,C   7,C   6,H  31)    178.6377         0.012287   
    152. D(H  34,C   7,C   6,H  32)    -60.6223         0.012287   
    153. D(H  34,C   7,C   6,O   5)     59.1678         0.012287   
    154. D(H  33,C   7,C   6,H  31)    -60.4830         0.012287   
    155. D(H  33,C   7,C   6,H  32)     60.2570         0.012287   
    156. D(H  33,C   7,C   6,O   5)   -179.9529         0.012287   
    157. D(C  10,C   9,C   3,C   2)    103.6870         0.011315   
    158. D(C  19,C   9,C   3,C   2)    -77.8161         0.011315   
    159. D(C  10,C   9,C   3,H  30)    -15.2483         0.011315   
    160. D(C  19,C   9,C   3,C   4)     54.7187         0.011315   
    161. D(C  10,C   9,C   3,C   4)   -123.7781         0.011315   
    162. D(O  11,C  10,C   9,C   3)     -5.9344         0.038529   
    163. D(C  12,C  10,C   9,C  19)     -5.4006         0.038529   
    164. D(C  12,C  10,C   9,C   3)    173.0483         0.038529   
    165. D(O  11,C  10,C   9,C  19)    175.6166         0.038529   
    166. D(H  36,O  11,C  10,C  12)    145.2714         0.024464   
    167. D(H  36,O  11,C  10,C   9)    -35.6932         0.024464   
    168. D(C  17,C  12,C  10,O  11)    179.9009         0.015663   
    169. D(C  17,C  12,C  10,C   9)      0.8333         0.015663   
    170. D(C  13,C  12,C  10,O  11)      0.6062         0.015663   
    171. D(C  13,C  12,C  10,C   9)   -178.4613         0.015663   
    172. D(H  37,C  13,C  12,C  17)   -179.6454         0.025026   
    173. D(H  37,C  13,C  12,C  10)     -0.3477         0.025026   
    174. D(C  14,C  13,C  12,C  17)      0.0170         0.025026   
    175. D(C  14,C  13,C  12,C  10)    179.3147         0.025026   
    176. D(H  38,C  14,C  13,H  37)     -0.2093         0.025171   
    177. D(H  38,C  14,C  13,C  12)   -179.8763         0.025171   
    178. D(C  15,C  14,C  13,H  37)    179.5973         0.025171   
    179. D(C  15,C  14,C  13,C  12)     -0.0696         0.025171   
    180. D(H  39,C  15,C  14,H  38)     -0.0934         0.026001   
    181. D(H  39,C  15,C  14,C  13)   -179.8996         0.026001   
    182. D(C  16,C  15,C  14,H  38)    179.8755         0.026001   
    183. D(C  16,C  15,C  14,C  13)      0.0693         0.026001   
    184. D(H  40,C  16,C  15,H  39)     -0.1243         0.026504   
    185. D(H  40,C  16,C  15,C  14)    179.9068         0.026504   
    186. D(C  17,C  16,C  15,H  39)    179.9518         0.026504   
    187. D(C  17,C  16,C  15,C  14)     -0.0172         0.026504   
    188. D(C  12,C  17,C  16,H  40)   -179.9602         0.026065   
    189. D(C  12,C  17,C  16,C  15)     -0.0363         0.026065   
    190. D(O  18,C  17,C  12,C  13)   -179.2015         0.026926   
    191. D(O  18,C  17,C  12,C  10)      1.4668         0.026926   
    192. D(C  16,C  17,C  12,C  13)      0.0362         0.026926   
    193. D(O  18,C  17,C  16,C  15)    179.2300         0.026065   
    194. D(C  16,C  17,C  12,C  10)   -179.2955         0.026926   
    195. D(O  18,C  17,C  16,H  40)     -0.6939         0.026065   
    196. D(C  19,O  18,C  17,C  16)   -178.1297         0.020456   
    197. D(C  19,O  18,C  17,C  12)      1.1455         0.020456   
    198. D(O  20,C  19,O  18,C  17)    172.1744         0.023874   
    199. D(C   9,C  19,O  18,C  17)     -5.6432         0.023874   
    200. D(O  20,C  19,C   9,C  10)   -170.0005         0.013313   
    201. D(O  20,C  19,C   9,C   3)     11.4357         0.013313   
    202. D(O  18,C  19,C   9,C  10)      7.8268         0.013313   
    203. D(O  18,C  19,C   9,C   3)   -170.7370         0.013313   
    204. D(C  23,C  21,C   2,C   3)    173.7290         0.038494   
    205. D(C  23,C  21,C   2,C   1)     -3.7379         0.038494   
    206. D(O  22,C  21,C   2,C   3)     -4.5825         0.038494   
    207. D(O  22,C  21,C   2,C   1)    177.9506         0.038494   
    208. D(H  41,O  22,C  21,C  23)    140.6956         0.024844   
    209. D(H  41,O  22,C  21,C   2)    -40.9015         0.024844   
    210. D(C  28,C  23,C  21,O  22)    179.7878         0.015589   
    211. D(C  28,C  23,C  21,C   2)      1.3269         0.015589   
    212. D(C  24,C  23,C  21,O  22)      0.0447         0.015589   
    213. D(C  24,C  23,C  21,C   2)   -178.4161         0.015589   
    214. D(H  42,C  24,C  23,C  28)   -179.7944         0.024987   
    215. D(H  42,C  24,C  23,C  21)     -0.0499         0.024987   
    216. D(C  25,C  24,C  23,C  28)      0.0300         0.024987   
    217. D(C  25,C  24,C  23,C  21)    179.7745         0.024987   
    218. D(H  43,C  25,C  24,H  42)     -0.1354         0.025178   
    219. D(H  43,C  25,C  24,C  23)   -179.9622         0.025178   
    220. D(C  26,C  25,C  24,H  42)    179.8026         0.025178   
    221. D(C  26,C  25,C  24,C  23)     -0.0242         0.025178   
    222. D(H  44,C  26,C  25,H  43)     -0.0554         0.026037   
    223. D(H  44,C  26,C  25,C  24)   -179.9933         0.026037   
    224. D(C  27,C  26,C  25,H  43)    179.9491         0.026037   
    225. D(C  27,C  26,C  25,C  24)      0.0112         0.026037   
    226. D(H  45,C  27,C  26,H  44)     -0.0627         0.026519   
    227. D(H  45,C  27,C  26,C  25)    179.9328         0.026519   
    228. D(C  28,C  27,C  26,H  44)    179.9996         0.026519   
    229. D(C  28,C  27,C  26,C  25)     -0.0049         0.026519   
    230. D(O  29,C  28,C  27,H  45)     -0.2599         0.026036   
    231. D(O  29,C  28,C  27,C  26)    179.6776         0.026036   
    232. D(C  23,C  28,C  27,H  45)   -179.9259         0.026036   
    233. D(C  23,C  28,C  27,C  26)      0.0117         0.026036   
    234. D(O  29,C  28,C  23,C  24)   -179.6769         0.026997   
    235. D(O  29,C  28,C  23,C  21)      0.5667         0.026997   
    236. D(C  27,C  28,C  23,C  24)     -0.0240         0.026997   
    237. D(C  27,C  28,C  23,C  21)   -179.7804         0.026997   
    238. D(C   1,O  29,C  28,C  27)   -179.4969         0.020538   
    239. D(C   1,O  29,C  28,C  23)      0.1731         0.020538   
    240. D(C  28,O  29,C   1,C   2)     -2.5619         0.024086   
    241. D(C  28,O  29,C   1,O   0)    176.5957         0.024086   
    -----------------------------------------------------------------

Number of atoms                         .... 46
Number of degrees of freedom            .... 241


         *************************************************************
         *                GEOMETRY OPTIMIZATION CYCLE   1            *
         *************************************************************
---------------------------------
CARTESIAN COORDINATES (ANGSTROEM)
---------------------------------
  O     -0.411926   -0.579162    2.676922
  C      0.622775   -0.184488    2.139276
  C      0.589685    0.362342    0.757385
  C     -0.822306    0.528625    0.220369
  C     -1.056218    1.785615   -0.640067
  O     -0.510211    2.882425   -0.036873
  C     -0.654262    4.099786   -0.778305
  C      0.082738    5.194862   -0.032690
  O     -1.708796    1.819661   -1.675718
  C     -1.351423   -0.734792   -0.434647
  C     -2.241614   -1.562828    0.141320
  O     -2.691323   -1.428427    1.439330
  C     -2.820799   -2.678585   -0.605004
  C     -3.773455   -3.551648   -0.066446
  C     -4.300636   -4.593246   -0.837750
  C     -3.881734   -4.771884   -2.156347
  C     -2.934664   -3.910576   -2.704462
  C     -2.418882   -2.878328   -1.921112
  O     -1.455252   -2.048667   -2.515122
  C     -0.858384   -1.022458   -1.804873
  O      0.083894   -0.389000   -2.277118
  C      1.741384    0.691324    0.144614
  O      1.823957    1.166671   -1.146468
  C      3.020306    0.594966    0.847696
  C      4.243484    0.954605    0.268991
  C      5.434653    0.844350    0.994673
  C      5.415568    0.373587    2.307535
  C      4.206063    0.012609    2.895591
  C      3.028283    0.128858    2.157401
  O      1.838209   -0.254487    2.793859
  H     -1.482125    0.767365    1.068730
  H     -1.716357    4.355555   -0.860192
  H     -0.223753    3.979781   -1.778857
  H      0.001648    6.149197   -0.560386
  H      1.142080    4.939943    0.077260
  H     -0.322490    5.313478    0.977660
  H     -1.963986   -1.103553    2.015484
  H     -4.118652   -3.425865    0.957767
  H     -5.041529   -5.262638   -0.406989
  H     -4.294007   -5.580862   -2.754050
  H     -2.600801   -4.042067   -3.729600
  H      1.199717    0.669658   -1.724116
  H      4.280582    1.327275   -0.752797
  H      6.376988    1.128125    0.531918
  H      6.342410    0.288957    2.869268
  H      4.181161   -0.356058    3.916942

----------------------------
CARTESIAN COORDINATES (A.U.)
----------------------------
  NO LB      ZA    FRAG     MASS         X           Y           Z
   0 O     8.0000    0    15.999   -0.778427   -1.094458    5.058649
   1 C     6.0000    0    12.011    1.176873   -0.348632    4.042645
   2 C     6.0000    0    12.011    1.114344    0.684727    1.431250
   3 C     6.0000    0    12.011   -1.553934    0.998956    0.416438
   4 C     6.0000    0    12.011   -1.995963    3.374324   -1.209552
   5 O     8.0000    0    15.999   -0.964158    5.446994   -0.069679
   6 C     6.0000    0    12.011   -1.236375    7.747473   -1.470783
   7 C     6.0000    0    12.011    0.156353    9.816866   -0.061775
   8 O     8.0000    0    15.999   -3.229157    3.438660   -3.166648
   9 C     6.0000    0    12.011   -2.553819   -1.388557   -0.821364
  10 C     6.0000    0    12.011   -4.236037   -2.953316    0.267056
  11 O     8.0000    0    15.999   -5.085864   -2.699336    2.719939
  12 C     6.0000    0    12.011   -5.330537   -5.061793   -1.143291
  13 C     6.0000    0    12.011   -7.130797   -6.711642   -0.125565
  14 C     6.0000    0    12.011   -8.127025   -8.679978   -1.583119
  15 C     6.0000    0    12.011   -7.335414   -9.017553   -4.074905
  16 C     6.0000    0    12.011   -5.545711   -7.389917   -5.110693
  17 C     6.0000    0    12.011   -4.571025   -5.439252   -3.630376
  18 O     8.0000    0    15.999   -2.750028   -3.871420   -4.752891
  19 C     6.0000    0    12.011   -1.622110   -1.932166   -3.410716
  20 O     8.0000    0    15.999    0.158536   -0.735103   -4.303130
  21 C     6.0000    0    12.011    3.290739    1.306413    0.273281
  22 O     8.0000    0    15.999    3.446780    2.204688   -2.166511
  23 C     6.0000    0    12.011    5.707551    1.124322    1.601914
  24 C     6.0000    0    12.011    8.019023    1.803942    0.508320
  25 C     6.0000    0    12.011   10.270006    1.595590    1.879659
  26 C     6.0000    0    12.011   10.233941    0.705978    4.360610
  27 C     6.0000    0    12.011    7.948308    0.023827    5.471873
  28 C     6.0000    0    12.011    5.722625    0.243506    4.076896
  29 O     8.0000    0    15.999    3.473711   -0.480910    5.279628
  30 H     1.0000    0     1.008   -2.800810    1.450110    2.019606
  31 H     1.0000    0     1.008   -3.243445    8.230807   -1.625527
  32 H     1.0000    0     1.008   -0.422832    7.520696   -3.361553
  33 H     1.0000    0     1.008    0.003115   11.620298   -1.058977
  34 H     1.0000    0     1.008    2.158219    9.335140    0.146000
  35 H     1.0000    0     1.008   -0.609418   10.041018    1.847510
  36 H     1.0000    0     1.008   -3.711396   -2.085412    3.808712
  37 H     1.0000    0     1.008   -7.783124   -6.473947    1.809918
  38 H     1.0000    0     1.008   -9.527109   -9.944945   -0.769097
  39 H     1.0000    0     1.008   -8.114498  -10.546301   -5.204400
  40 H     1.0000    0     1.008   -4.914802   -7.638399   -7.047922
  41 H     1.0000    0     1.008    2.267136    1.265470   -3.258108
  42 H     1.0000    0     1.008    8.089127    2.508187   -1.422579
  43 H     1.0000    0     1.008   12.050760    2.131848    1.005180
  44 H     1.0000    0     1.008   11.985418    0.546049    5.422130
  45 H     1.0000    0     1.008    7.901249   -0.672851    7.401948

--------------------------------
INTERNAL COORDINATES (ANGSTROEM)
--------------------------------
 O      0   0   0     0.000000000000     0.00000000     0.00000000
 C      1   0   0     1.231030345400     0.00000000     0.00000000
 C      2   1   0     1.486519662652   120.34678484     0.00000000
 C      3   2   1     1.519788050351   112.91762096     7.40275497
 C      4   3   2     1.541133105693   115.31106119   141.97943284
 O      5   4   3     1.365635146195   110.35172410   313.96028686
 C      6   5   4     1.432634545521   114.43577932   178.80316684
 C      7   6   5     1.516014484998   108.08216813   183.99743102
 O      5   4   3     1.224577355624   125.15127628   138.17909918
 C      4   3   2     1.518299431221   112.65431600   273.18911080
 C     10   4   3     1.345295489621   123.92273304   103.68704856
 O     11  10   4     1.380265277602   123.93688531   354.06557046
 C     11  10   4     1.461974182078   120.88601105   173.04834856
 C     13  11  10     1.399941639630   123.30935918   181.53867355
 C     14  13  11     1.399198478889   120.56953722   179.31469090
 C     15  14  13     1.395022143742   120.21420458   359.93039006
 C     16  15  14     1.392560241459   119.80557224     0.06932667
 C     13  11  10     1.390531027747   118.57370522     0.83333152
 O     18  13  11     1.403483773017   120.93902441     1.46676877
 C     19  18  13     1.383405395326   121.16125845     1.14547054
 O     20  19  18     1.229704016725   121.03508554   172.17439959
 C      3   2   1     1.345409868899   119.62298717   185.21869480
 O     22   3   2     1.378283971781   124.21173223   177.95059599
 C     22   3   2     1.462617372438   120.89482843   356.26205186
 C     24  22   3     1.400144770825   123.24936214   181.58385322
 C     25  24  22     1.399161716021   120.60603843   179.77448449
 C     26  25  24     1.394843897114   120.20648086   359.97583825
 C     27  26  25     1.392485709943   119.79257941     0.00000000
 C     24  22   3     1.390196235757   118.68376294     1.32686202
 O      2   1   3     1.382265735649   121.06502987   180.85713169
 H      4   3   2     1.100941749852   107.95419332    31.97593190
 H      7   6   5     1.095522787732   109.54525446    64.34027360
 H      7   6   5     1.095830113410   109.87543406   303.68038084
 H      8   7   6     1.093523921972   110.91656397   180.04714322
 H      8   7   6     1.095115372965   110.57895974    59.16783857
 H      8   7   6     1.095028741605   110.61798607   300.94810790
 H     12  11  10     0.983115218890   110.01432694   324.30682345
 H     14  13  11     1.088115925409   120.39104430   359.65226423
 H     15  14  13     1.087457078407   119.77370912   180.12374250
 H     16  15  14     1.087043975746   120.07488618   180.10037356
 H     17  16  15     1.086121936274   120.37628893   179.90677072
 H     23  22   3     0.985076387462   109.71404273   319.09854219
 H     25  24  22     1.088259908667   120.38532502   359.95007333
 H     26  25  24     1.087503735133   119.76475209   180.03780083
 H     27  26  25     1.087079377961   120.06446144   180.00672337
 H     28  27  26     1.086136989516   120.33284589   179.93275609

---------------------------
INTERNAL COORDINATES (A.U.)
---------------------------
 O      0   0   0     0.000000000000     0.00000000     0.00000000
 C      1   0   0     2.326310215353     0.00000000     0.00000000
 C      2   1   0     2.809115055101   120.34678484     0.00000000
 C      3   2   1     2.871983196769   112.91762096     7.40275497
 C      4   3   2     2.912319505679   115.31106119   141.97943284
 O      5   4   3     2.580676425166   110.35172410   313.96028686
 C      6   5   4     2.707286941030   114.43577932   178.80316684
 C      7   6   5     2.864852191705   108.08216813   183.99743102
 O      5   4   3     2.314115831930   125.15127628   138.17909918
 C      4   3   2     2.869170114295   112.65431600   273.18911080
 C     10   4   3     2.542240044584   123.92273304   103.68704856
 O     11  10   4     2.608323366829   123.93688531   354.06557046
 C     11  10   4     2.762730818991   120.88601105   173.04834856
 C     13  11  10     2.645506302372   123.30935918   181.53867355
 C     14  13  11     2.644101932100   120.56953722   179.31469090
 C     15  14  13     2.636209802427   120.21420458   359.93039006
 C     16  15  14     2.631557481345   119.80557224     0.06932667
 C     13  11  10     2.627722823162   118.57370522     0.83333152
 O     18  13  11     2.652199964405   120.93902441     1.46676877
 C     19  18  13     2.614257329356   121.16125845     1.14547054
 O     20  19  18     2.323803817393   121.03508554   172.17439959
 C      3   2   1     2.542456190094   119.62298717   185.21869480
 O     22   3   2     2.604579241439   124.21173223   177.95059599
 C     22   3   2     2.763946272623   120.89482843   356.26205186
 C     24  22   3     2.645890164701   123.24936214   181.58385322
 C     25  24  22     2.644032460347   120.60603843   179.77448449
 C     26  25  24     2.635872965117   120.20648086   359.97583825
 C     27  26  25     2.631416637191   119.79257941     0.00000000
 C     24  22   3     2.627090157990   118.68376294     1.32686202
 O      2   1   3     2.612103684680   121.06502987   180.85713169
 H      4   3   2     2.080478396620   107.95419332    31.97593190
 H      7   6   5     2.070238042283   109.54525446    64.34027360
 H      7   6   5     2.070818803649   109.87543406   303.68038084
 H      8   7   6     2.066460733419   110.91656397   180.04714322
 H      8   7   6     2.069468139950   110.57895974    59.16783857
 H      8   7   6     2.069304430406   110.61798607   300.94810790
 H     12  11  10     1.857818521793   110.01432694   324.30682345
 H     14  13  11     2.056241100982   120.39104430   359.65226423
 H     15  14  13     2.054996060583   119.77370912   180.12374250
 H     16  15  14     2.054215409688   120.07488618   180.10037356
 H     17  16  15     2.052473007602   120.37628893   179.90677072
 H     23  22   3     1.861524593296   109.71404273   319.09854219
 H     25  24  22     2.056513189906   120.38532502   359.95007333
 H     26  25  24     2.055084229018   119.76475209   180.03780083
 H     27  26  25     2.054282310180   120.06446144   180.00672337
 H     28  27  26     2.052501454108   120.33284589   179.93275609

---------------------
BASIS SET INFORMATION
---------------------
There are 3 groups of distinct atoms

 Group   1 Type O   : 7s4p1d contracted to 3s2p1d pattern {511/31/1}
 Group   2 Type C   : 7s4p1d contracted to 3s2p1d pattern {511/31/1}
 Group   3 Type H   : 4s1p contracted to 2s1p pattern {31/1}

Atom   0O    basis set group =>   1
Atom   1C    basis set group =>   2
Atom   2C    basis set group =>   2
Atom   3C    basis set group =>   2
Atom   4C    basis set group =>   2
Atom   5O    basis set group =>   1
Atom   6C    basis set group =>   2
Atom   7C    basis set group =>   2
Atom   8O    basis set group =>   1
Atom   9C    basis set group =>   2
Atom  10C    basis set group =>   2
Atom  11O    basis set group =>   1
Atom  12C    basis set group =>   2
Atom  13C    basis set group =>   2
Atom  14C    basis set group =>   2
Atom  15C    basis set group =>   2
Atom  16C    basis set group =>   2
Atom  17C    basis set group =>   2
Atom  18O    basis set group =>   1
Atom  19C    basis set group =>   2
Atom  20O    basis set group =>   1
Atom  21C    basis set group =>   2
Atom  22O    basis set group =>   1
Atom  23C    basis set group =>   2
Atom  24C    basis set group =>   2
Atom  25C    basis set group =>   2
Atom  26C    basis set group =>   2
Atom  27C    basis set group =>   2
Atom  28C    basis set group =>   2
Atom  29O    basis set group =>   1
Atom  30H    basis set group =>   3
Atom  31H    basis set group =>   3
Atom  32H    basis set group =>   3
Atom  33H    basis set group =>   3
Atom  34H    basis set group =>   3
Atom  35H    basis set group =>   3
Atom  36H    basis set group =>   3
Atom  37H    basis set group =>   3
Atom  38H    basis set group =>   3
Atom  39H    basis set group =>   3
Atom  40H    basis set group =>   3
Atom  41H    basis set group =>   3
Atom  42H    basis set group =>   3
Atom  43H    basis set group =>   3
Atom  44H    basis set group =>   3
Atom  45H    basis set group =>   3
---------------------------------
AUXILIARY/J BASIS SET INFORMATION
---------------------------------
There are 3 groups of distinct atoms

 Group   1 Type O   : 12s5p4d2f1g contracted to 6s4p3d1f1g pattern {711111/2111/211/2/1}
 Group   2 Type C   : 12s5p4d2f1g contracted to 6s4p3d1f1g pattern {711111/2111/211/2/1}
 Group   3 Type H   : 5s2p1d contracted to 3s1p1d pattern {311/2/1}

Atom   0O    basis set group =>   1
Atom   1C    basis set group =>   2
Atom   2C    basis set group =>   2
Atom   3C    basis set group =>   2
Atom   4C    basis set group =>   2
Atom   5O    basis set group =>   1
Atom   6C    basis set group =>   2
Atom   7C    basis set group =>   2
Atom   8O    basis set group =>   1
Atom   9C    basis set group =>   2
Atom  10C    basis set group =>   2
Atom  11O    basis set group =>   1
Atom  12C    basis set group =>   2
Atom  13C    basis set group =>   2
Atom  14C    basis set group =>   2
Atom  15C    basis set group =>   2
Atom  16C    basis set group =>   2
Atom  17C    basis set group =>   2
Atom  18O    basis set group =>   1
Atom  19C    basis set group =>   2
Atom  20O    basis set group =>   1
Atom  21C    basis set group =>   2
Atom  22O    basis set group =>   1
Atom  23C    basis set group =>   2
Atom  24C    basis set group =>   2
Atom  25C    basis set group =>   2
Atom  26C    basis set group =>   2
Atom  27C    basis set group =>   2
Atom  28C    basis set group =>   2
Atom  29O    basis set group =>   1
Atom  30H    basis set group =>   3
Atom  31H    basis set group =>   3
Atom  32H    basis set group =>   3
Atom  33H    basis set group =>   3
Atom  34H    basis set group =>   3
Atom  35H    basis set group =>   3
Atom  36H    basis set group =>   3
Atom  37H    basis set group =>   3
Atom  38H    basis set group =>   3
Atom  39H    basis set group =>   3
Atom  40H    basis set group =>   3
Atom  41H    basis set group =>   3
Atom  42H    basis set group =>   3
Atom  43H    basis set group =>   3
Atom  44H    basis set group =>   3
Atom  45H    basis set group =>   3


           ************************************************************
           *        Program running with 8 parallel MPI-processes     *
           *              working on a common directory               *
           ************************************************************
------------------------------------------------------------------------------
                             ORCA STARTUP CALCULATIONS
                           -- RI-GTO INTEGRALS CHOSEN --
------------------------------------------------------------------------------
------------------------------------------------------------------------------
                   ___                                                        
                  /   \      - P O W E R E D   B Y -                         
                 /     \                                                     
                 |  |  |   _    _      __       _____    __    __             
                 |  |  |  | |  | |    /  \     |  _  \  |  |  /  |          
                  \  \/   | |  | |   /    \    | | | |  |  | /  /          
                 / \  \   | |__| |  /  /\  \   | |_| |  |  |/  /          
                |  |  |   |  __  | /  /__\  \  |    /   |      \           
                |  |  |   | |  | | |   __   |  |    \   |  |\   \          
                \     /   | |  | | |  |  |  |  | |\  \  |  | \   \       
                 \___/    |_|  |_| |__|  |__|  |_| \__\ |__|  \__/        
                                                                              
                      - O R C A' S   B I G   F R I E N D -                    
                                      &                                       
                       - I N T E G R A L  F E E D E R -                       
                                                                              
 v1 FN, 2020, v2 2021, v3 2022-2024                                           
------------------------------------------------------------------------------


----------------------
SHARK INTEGRAL PACKAGE
----------------------

Number of atoms                             ...     46
Number of basis functions                   ...    500
Number of shells                            ...    228
Maximum angular momentum                    ...      2
Integral batch strategy                     ... SHARK/LIBINT Hybrid
RI-J (if used) integral strategy            ... SPLIT-RIJ (Revised 2003 algorithm where possible)
Printlevel                                  ...      1
Contraction scheme used                     ... SEGMENTED contraction
Prescreening option                         ... SCHWARTZ
   Thresh                                   ... 2.500e-11
   Tcut                                     ... 2.500e-12
   Tpresel                                  ... 2.500e-12 
Coulomb Range Separation                    ... NOT USED
Exchange Range Separation                   ... NOT USED
Multipole approximations                    ... NOT USED
Finite Nucleus Model                        ... NOT USED
CABS basis                                  ... NOT available
Auxiliary Coulomb fitting basis             ... AVAILABLE
   # of basis functions in Aux-J            ...   1646
   # of shells in Aux-J                     ...    530
   Maximum angular momentum in Aux-J        ...      4
Auxiliary J/K fitting basis                 ... NOT available
Auxiliary Correlation fitting basis         ... NOT available
Auxiliary 'external' fitting basis          ... NOT available

Checking pre-screening integrals            ... done (  0.0 sec) Dimension = 228
   => SHARK Basis and OBASIS are compatible. Storing Pre-screening
Shell pair information
Shell pair cut-off parameter TPreSel        ...   2.5e-12
Total number of shell pairs                 ...     26106
Shell pairs after pre-screening             ...     16826
Total number of primitive shell pairs       ...     97458
Primitive shell pairs kept                  ...     38600
          la=0 lb=0:   4884 shell pairs
          la=1 lb=0:   6217 shell pairs
          la=1 lb=1:   2021 shell pairs
          la=2 lb=0:   2108 shell pairs
          la=2 lb=1:   1372 shell pairs
          la=2 lb=2:    224 shell pairs

Checking whether 4 symmetric matrices of dimension 500 fit in memory
:Max Core in MB      =   3000.00
 MB in use           =     19.78
 MB left             =   2980.22
 MB needed           =      3.82
 Data fit in memory  = YES
Calculating RI/J V-Matrix + Cholesky decomp.... done (  0.1 sec)
Calculating Nuclear repulsion               ... done (  0.0 sec) ENN=   2926.461597113004 Eh

Diagonalization of the overlap matrix:
Smallest eigenvalue                        ... 2.313e-04
Time for diagonalization                   ...    0.015 sec
Threshold for overlap eigenvalues          ... 1.000e-07
Number of eigenvalues below threshold      ... 0
Time for construction of square roots      ...    0.011 sec
Total time needed                          ...    0.028 sec

-------------------
DFT GRID GENERATION
-------------------

General Integration Accuracy     IntAcc      ... 4.388
Radial Grid Type                 RadialGrid  ... OptM3 with GC (2021)
Angular Grid (max. ang.)         AngularGrid ... 4 (Lebedev-302)
Angular grid pruning method      GridPruning ... 4 (adaptive)
Weight generation scheme         WeightScheme... mBecke (2022)
Basis function cutoff            BFCut       ... 1.0000e-11
Integration weight cutoff        WCut        ... 1.0000e-14
Partially contracted basis set               ... off
Rotationally invariant grid construction     ... off
Angular grids for H and He will be reduced by one unit

Total number of grid points                  ...   230456
Total number of batches                      ...     3623
Average number of points per batch           ...       63
Average number of grid points per atom       ...     5010

--------------------
COSX GRID GENERATION
--------------------

GRIDX 1
-------
General Integration Accuracy     IntAcc      ... 3.816
Radial Grid Type                 RadialGrid  ... OptM3 with GC (2021)
Angular Grid (max. ang.)         AngularGrid ... 1 (Lebedev-50)
Angular grid pruning method      GridPruning ... 4 (adaptive)
Weight generation scheme         WeightScheme... mBecke (2022)
Basis function cutoff            BFCut       ... 1.0000e-11
Integration weight cutoff        WCut        ... 1.0000e-14
Partially contracted basis set               ... on
Rotationally invariant grid construction     ... off
Angular grids for H and He will be reduced by one unit

Total number of grid points                  ...    29230
Total number of batches                      ...      253
Average number of points per batch           ...      115
Average number of grid points per atom       ...      635
UseSFitting                                  ... on

GRIDX 2
-------
General Integration Accuracy     IntAcc      ... 4.020
Radial Grid Type                 RadialGrid  ... OptM3 with GC (2021)
Angular Grid (max. ang.)         AngularGrid ... 2 (Lebedev-110)
Angular grid pruning method      GridPruning ... 4 (adaptive)
Weight generation scheme         WeightScheme... mBecke (2022)
Basis function cutoff            BFCut       ... 1.0000e-11
Integration weight cutoff        WCut        ... 1.0000e-14
Partially contracted basis set               ... on
Rotationally invariant grid construction     ... off
Angular grids for H and He will be reduced by one unit

Total number of grid points                  ...    64440
Total number of batches                      ...      527
Average number of points per batch           ...      122
Average number of grid points per atom       ...     1401
UseSFitting                                  ... on

GRIDX 3
-------
General Integration Accuracy     IntAcc      ... 4.338
Radial Grid Type                 RadialGrid  ... OptM3 with GC (2021)
Angular Grid (max. ang.)         AngularGrid ... 3 (Lebedev-194)
Angular grid pruning method      GridPruning ... 4 (adaptive)
Weight generation scheme         WeightScheme... mBecke (2022)
Basis function cutoff            BFCut       ... 1.0000e-11
Integration weight cutoff        WCut        ... 1.0000e-14
Partially contracted basis set               ... on
Rotationally invariant grid construction     ... off
Angular grids for H and He will be reduced by one unit

Total number of grid points                  ...   141236
Total number of batches                      ...     1126
Average number of points per batch           ...      125
Average number of grid points per atom       ...     3070
UseSFitting                                  ... on
Grids setup in   1.7 sec
Initializing property integral containers    ... done (  0.1 sec)

SHARK setup successfully completed in   2.0 seconds

Maximum memory used throughout the entire STARTUP-calculation: 61.3 MB


           ************************************************************
           *        Program running with 8 parallel MPI-processes     *
           *              working on a common directory               *
           ************************************************************
-------------------------------------------------------------------------------
                                 ORCA GUESS
                   Start orbitals & Density for SCF / CASSCF
-------------------------------------------------------------------------------

------------
SCF SETTINGS
------------
Hamiltonian:
 Density Functional     Method          .... DFT(GTOs)
 Exchange Functional    Exchange        .... B88
   X-Alpha parameter    XAlpha          ....  0.666667
   Becke's b parameter  XBeta           ....  0.004200
 Correlation Functional Correlation     .... LYP
 LDA part of GGA corr.  LDAOpt          .... VWN-5
 Gradients option       PostSCFGGA      .... off
 Hybrid DFT is turned on
   Fraction HF Exchange ScalHFX         ....  0.200000
   Scaling of DF-GGA-X  ScalDFX         ....  0.720000
   Scaling of DF-GGA-C  ScalDFC         ....  0.810000
   Scaling of DF-LDA-C  ScalLDAC        ....  1.000000
   Perturbative correction              ....  0.000000
   NL short-range parameter             ....  4.800000
 RI-approximation to the Coulomb term is turned on
   Number of AuxJ basis functions       .... 1646
   RIJ-COSX (HFX calculated with COS-X)).... on


General Settings:
 Integral files         IntName         .... D:\Makaleler\coumarin-logp-working-source\dft\molecules\CMR_GOLD_016\input\CMR_GOLD_016_optfreq
 Hartree-Fock type      HFTyp           .... RHF
 Total Charge           Charge          ....    0
 Multiplicity           Mult            ....    1
 Number of Electrons    NEL             ....  212
 Basis Dimension        Dim             ....  500
 Nuclear Repulsion      ENuc            ....   2926.4615971130 Eh

Convergence Acceleration:
 AO-DIIS                CNVDIIS         .... on
   Start iteration      DIISMaxIt       ....    12
   Startup error        DIISStart       ....  0.200000
   # of expansion vecs  DIISMaxEq       ....     5
   Bias factor          DIISBfac        ....   1.050
   Max. coefficient     DIISMaxC        ....  10.000
 MO-DIIS                CNVKDIIS        .... off
 Trust-Rad. Augm. Hess. CNVTRAH         .... auto
   Auto Start mean grad. ratio tolernc. ....  1.125000
   Auto Start start iteration           ....    50
   Auto Start num. interpolation iter.  ....    10
   Max. Number of Micro iterations      ....    24
   Max. Number of Macro iterations      .... Maxiter - #DIIS iter
   Number of Davidson start vectors     ....     2
   Converg. threshold    (grad. norm)   ....   1.000e-05
   Grad. Scal. Fac. for Micro threshold ....   0.100
   Minimum threshold for Micro iter.    ....   1.000e-02
   NR start threshold (gradient norm)   ....   1.000e-04
   Initial trust radius                 ....   0.400
   Minimum AH scaling param. (alpha)    ....   1.000
   Maximum AH scaling param. (alpha)    .... 1000.000
   Quad. conv. algorithm                .... NR
   White noise on init. David. guess    .... on
   Maximum white noise                  ....   0.010
   Pseudo random numbers                .... off
   Inactive MOs                         .... canonical
   Orbital update algorithm             .... Taylor
   Preconditioner                       .... Diag
   Full preconditioner red. dimension   ....   250
 SOSCF                 CNVSOSCF           .... on
   Start iteration     SOSCFMaxIt         ....   150
   Startup grad/error  SOSCFStart         ....  0.003300
   Hessian update      SOSCFHessUp        .... L-BFGS
   Autom. constraints  SOSCFAutoConstrain .... off
 Level Shifting         CNVShift        .... on
   Level shift para.    LevelShift      ....    0.2500
   Turn off err/grad.   ShiftErr        ....    0.0010
 Zerner damping         CNVZerner       .... off
 Static damping         CNVDamp         .... on
   Fraction old density DampFac         ....    0.7000
   Max. Damping (<1)    DampMax         ....    0.9800
   Min. Damping (>=0)   DampMin         ....    0.0000
   Turn off err/grad.   DampErr         ....    0.1000

SCF Procedure:
 Maximum # iterations   MaxIter         ....   500
 SCF integral mode      SCFMode         .... Direct
   Integral package                     .... SHARK and LIBINT hybrid scheme
 Reset frequency        DirectResetFreq ....    20
 Integral Threshold     Thresh          ....  2.500e-11 Eh
 Primitive CutOff       TCut            ....  2.500e-12 Eh

Convergence Tolerance:
 Convergence Check Mode ConvCheckMode   .... Total+1el-Energy
 Convergence forced     ConvForced      .... 0
 Energy Change          TolE            ....  1.000e-08 Eh
 1-El. energy change                    ....  1.000e-05 Eh
 Orbital Gradient       TolG            ....  1.000e-05
 Orbital Rotation angle TolX            ....  1.000e-05
 DIIS Error             TolErr          ....  5.000e-07

------------------------------
INITIAL GUESS: MODEL POTENTIAL
------------------------------
Loading Hartree-Fock densities                     ... done
Calculating cut-offs                               ... done
Initializing the effective Hamiltonian             ... done
Setting up the integral package (SHARK)            ... done
Starting the Coulomb interaction                   ... done (   0.1 sec)
Making the grid                                    ... done (   0.3 sec)
Mapping shells                                     ... done
Starting the XC term evaluation                    ... done (   0.1 sec)
  promolecular density results
     # of electrons  =    211.996852374
     EX              =   -183.502842501
     EC              =     -7.391204507
     EX+EC           =   -190.894047007
Transforming the Hamiltonian                       ... done (   0.0 sec)
Diagonalizing the Hamiltonian                      ... done (   0.0 sec)
Back transforming the eigenvectors                 ... done (   0.0 sec)
Now organizing SCF variables                       ... done
                      ------------------
                      INITIAL GUESS DONE (   0.6 sec)
                      ------------------
             **** ENERGY FILE WAS UPDATED (D:\Makaleler\coumarin-logp-working-source\dft\molecules\CMR_GOLD_016\input\CMR_GOLD_016_optfreq.en.tmp) ****
Finished Guess after   0.7 sec
Maximum memory used throughout the entire GUESS-calculation: 27.2 MB


           ************************************************************
           *        Program running with 8 parallel MPI-processes     *
           *              working on a common directory               *
           ************************************************************

-------------------------------------------------------------------------------------------
                                      ORCA LEAN-SCF
                              memory conserving SCF solver
-------------------------------------------------------------------------------------------

--------------------
CPCM SOLVATION MODEL
--------------------
CPCM parameters:
  Epsilon                                         ...      80.1510
  Refrac                                          ...       1.3328
  Rsolv                                           ...       1.3000
  Surface type                                    ... GAUSSIAN VDW
  Discretization scheme                           ... Constant charge density
    Threshold for H atoms                         ...       5.0000 (charges/Ang^2)
    Threshold for non-H atoms                     ...       5.0000 (charges/Ang^2)
  Epsilon function type                           ...         CPCM
Solvent:                                          ... WATER
Radii:
  Scheme                                          ... Element-dependent radii
  Radius for O  used is    3.4469 Bohr (=   1.8240 Ang.)
  Radius for C  used is    3.8550 Bohr (=   2.0400 Ang.)
  Radius for H  used is    2.4944 Bohr (=   1.3200 Ang.)
Calculating surface                               ...        done! (  0.0s)
Cavity surface points                             ...         3909
Cavity Volume                                     ...    2957.5593
Cavity Surface-area                               ...    1438.9233
Calculating surface distance matrix               ...        done! (  0.1s)
Performing Cholesky decomposition & store         ...        done! (  0.3s)
Overall time for CPCM initialization              ...                 0.4s

----------------------------------------D-I-I-S--------------------------------------------
Iteration    Energy (Eh)           Delta-E    RMSDP     MaxDP     DIISErr   Damp  Time(sec)
-------------------------------------------------------------------------------------------
               ***  Starting incremental Fock matrix formation  ***
    1    -1447.3079643640576251     0.00e+00  6.88e-03  1.38e-01  2.59e-01  0.700   3.7
    2    -1447.6361743576162553    -3.28e-01  4.38e-03  8.37e-02  9.75e-02  0.700   2.8
                               ***Turning on AO-DIIS***
    3    -1447.7548122374928425    -1.19e-01  1.85e-03  1.81e-02  3.23e-02  0.700   2.1
    4    -1447.8307067528385232    -7.59e-02  3.42e-03  3.28e-02  1.69e-02  0.000   1.8
    5    -1447.9995119029235866    -1.69e-01  5.48e-04  5.47e-03  5.26e-03  0.000   1.8
                              *** Initializing SOSCF ***
---------------------------------------S-O-S-C-F--------------------------------------
Iteration    Energy (Eh)           Delta-E    RMSDP     MaxDP     MaxGrad    Time(sec)
--------------------------------------------------------------------------------------
    6    -1448.0004776475043400    -9.66e-04  1.83e-04  2.29e-03  1.76e-03     1.8
               *** Restarting incremental Fock matrix formation ***
    7    -1448.0004058368213009     7.18e-05  1.44e-04  2.61e-03  3.75e-04     3.4
    8    -1448.0003884560746883     1.74e-05  7.80e-05  1.92e-03  8.56e-04     2.4
    9    -1448.0004205059203741    -3.20e-05  2.94e-05  4.43e-04  7.60e-05     2.2
   10    -1448.0004199157983749     5.90e-07  1.66e-05  3.47e-04  1.13e-04     2.1
   11    -1448.0004211160739942    -1.20e-06  6.06e-06  7.29e-05  1.71e-05     1.9
   12    -1448.0004211385275994    -2.25e-08  3.32e-06  4.01e-05  1.66e-05     1.7
   13    -1448.0004211772848066    -3.88e-08  1.06e-06  2.18e-05  2.10e-06     1.6
                  *** Gradient check signals convergence ***

               *****************************************************
               *                     SUCCESS                       *
               *           SCF CONVERGED AFTER  13 CYCLES          *
               *****************************************************

Recomputing exchange energy using gridx3       ... done (    4.914 sec)
Old exchange energy                            :    -37.054614116 Eh
New exchange energy                            :    -37.054599901 Eh
Exchange energy change after final integration :      0.000014215 Eh
Total energy after final integration           :  -1448.000406962 Eh
             **** ENERGY FILE WAS UPDATED (D:\Makaleler\coumarin-logp-working-source\dft\molecules\CMR_GOLD_016\input\CMR_GOLD_016_optfreq.en.tmp) ****

----------------
TOTAL SCF ENERGY
----------------

Total Energy       :      -1448.00040696223141 Eh          -39402.09424 eV

Components:
Nuclear Repulsion  :       2926.46159711300425 Eh           79633.06852 eV
Electronic Energy  :      -4374.44010421354869 Eh         -119034.56684 eV
One Electron Energy:      -7796.96714453921413 Eh         -212166.26233 eV
Two Electron Energy:       3422.52704032566544 Eh           93131.69549 eV
CPCM Dielectric    :         -0.02191407651249 Eh              -0.59631 eV

Virial components:
Potential Energy   :      -2882.68282102385638 Eh          -78441.78746 eV
Kinetic Energy     :       1434.68241406162497 Eh           39039.69323 eV
Virial Ratio       :          2.00928288572445

DFT components:
N(Alpha)           :      105.999883038579 electrons
N(Beta)            :      105.999883038579 electrons
N(Total)           :      211.999766077158 electrons
E(X)               :     -147.416702654124 Eh       
E(C)               :       -8.680071792949 Eh       
E(XC)              :     -156.096774447074 Eh       

CPCM Solvation Model Properties:
Surface-charge          :         -0.02604075472731
Corrected charge        :          0.00000000000000
Outlying charge corr.   :          0.00003261324255 Eh               0.00089 eV
Free-energy (cav+disp)  :  This term is not implemented in the current solvation scheme

---------------
SCF CONVERGENCE
---------------

  Last Energy change         ...    3.8757e-08  Tolerance :   1.0000e-08
  Last MAX-Density change    ...    2.1812e-05  Tolerance :   1.0000e-07
  Last RMS-Density change    ...    1.0564e-06  Tolerance :   5.0000e-09
  Last DIIS Error            ...    1.7583e-03  Tolerance :   5.0000e-07
  Last Orbital Gradient      ...    2.1026e-06  Tolerance :   1.0000e-05
  Last Orbital Rotation      ...    8.5662e-06  Tolerance :   1.0000e-05


----------------
ORBITAL ENERGIES
----------------

  NO   OCC          E(Eh)            E(eV) 
   0   2.0000     -19.214872      -522.8633 
   1   2.0000     -19.214709      -522.8588 
   2   2.0000     -19.183006      -521.9961 
   3   2.0000     -19.168341      -521.5971 
   4   2.0000     -19.162590      -521.4406 
   5   2.0000     -19.143536      -520.9221 
   6   2.0000     -19.142616      -520.8971 
   7   2.0000     -19.136746      -520.7373 
   8   2.0000     -10.344744      -281.4948 
   9   2.0000     -10.342660      -281.4381 
  10   2.0000     -10.330034      -281.0945 
  11   2.0000     -10.283725      -279.8344 
  12   2.0000     -10.282634      -279.8047 
  13   2.0000     -10.274515      -279.5838 
  14   2.0000     -10.273936      -279.5680 
  15   2.0000     -10.237346      -278.5723 
  16   2.0000     -10.233084      -278.4564 
  17   2.0000     -10.217316      -278.0273 
  18   2.0000     -10.216939      -278.0171 
  19   2.0000     -10.216712      -278.0109 
  20   2.0000     -10.215392      -277.9750 
  21   2.0000     -10.205950      -277.7180 
  22   2.0000     -10.205451      -277.7044 
  23   2.0000     -10.204502      -277.6786 
  24   2.0000     -10.204192      -277.6702 
  25   2.0000     -10.203867      -277.6613 
  26   2.0000     -10.203555      -277.6528 
  27   2.0000     -10.198112      -277.5047 
  28   2.0000     -10.197832      -277.4971 
  29   2.0000     -10.176460      -276.9156 
  30   2.0000      -1.112813       -30.2812 
  31   2.0000      -1.111951       -30.2577 
  32   2.0000      -1.094923       -29.7944 
  33   2.0000      -1.050486       -28.5852 
  34   2.0000      -1.048717       -28.5370 
  35   2.0000      -1.032203       -28.0877 
  36   2.0000      -1.030574       -28.0434 
  37   2.0000      -1.010546       -27.4984 
  38   2.0000      -0.872286       -23.7361 
  39   2.0000      -0.871824       -23.7235 
  40   2.0000      -0.847917       -23.0730 
  41   2.0000      -0.813766       -22.1437 
  42   2.0000      -0.787780       -21.4366 
  43   2.0000      -0.763683       -20.7809 
  44   2.0000      -0.762113       -20.7381 
  45   2.0000      -0.761492       -20.7213 
  46   2.0000      -0.753763       -20.5109 
  47   2.0000      -0.720104       -19.5950 
  48   2.0000      -0.660817       -17.9818 
  49   2.0000      -0.658648       -17.9227 
  50   2.0000      -0.655928       -17.8487 
  51   2.0000      -0.646630       -17.5957 
  52   2.0000      -0.629298       -17.1241 
  53   2.0000      -0.623444       -16.9648 
  54   2.0000      -0.614220       -16.7138 
  55   2.0000      -0.588420       -16.0117 
  56   2.0000      -0.571271       -15.5451 
  57   2.0000      -0.564617       -15.3640 
  58   2.0000      -0.563793       -15.3416 
  59   2.0000      -0.549621       -14.9559 
  60   2.0000      -0.536186       -14.5904 
  61   2.0000      -0.527571       -14.3559 
  62   2.0000      -0.504409       -13.7257 
  63   2.0000      -0.497696       -13.5430 
  64   2.0000      -0.496197       -13.5022 
  65   2.0000      -0.490426       -13.3452 
  66   2.0000      -0.485238       -13.2040 
  67   2.0000      -0.484102       -13.1731 
  68   2.0000      -0.478897       -13.0314 
  69   2.0000      -0.473543       -12.8858 
  70   2.0000      -0.470123       -12.7927 
  71   2.0000      -0.465335       -12.6624 
  72   2.0000      -0.455546       -12.3960 
  73   2.0000      -0.449853       -12.2411 
  74   2.0000      -0.446551       -12.1513 
  75   2.0000      -0.442219       -12.0334 
  76   2.0000      -0.435494       -11.8504 
  77   2.0000      -0.426496       -11.6056 
  78   2.0000      -0.422136       -11.4869 
  79   2.0000      -0.412725       -11.2308 
  80   2.0000      -0.403515       -10.9802 
  81   2.0000      -0.401408       -10.9229 
  82   2.0000      -0.397821       -10.8253 
  83   2.0000      -0.394869       -10.7449 
  84   2.0000      -0.390218       -10.6184 
  85   2.0000      -0.389453       -10.5976 
  86   2.0000      -0.383022       -10.4225 
  87   2.0000      -0.378070       -10.2878 
  88   2.0000      -0.365504        -9.9459 
  89   2.0000      -0.363268        -9.8850 
  90   2.0000      -0.358988        -9.7686 
  91   2.0000      -0.355178        -9.6649 
  92   2.0000      -0.351259        -9.5583 
  93   2.0000      -0.350307        -9.5323 
  94   2.0000      -0.348273        -9.4770 
  95   2.0000      -0.344899        -9.3852 
  96   2.0000      -0.310762        -8.4563 
  97   2.0000      -0.306643        -8.3442 
  98   2.0000      -0.305118        -8.3027 
  99   2.0000      -0.296471        -8.0674 
 100   2.0000      -0.290590        -7.9074 
 101   2.0000      -0.288812        -7.8590 
 102   2.0000      -0.261330        -7.1112 
 103   2.0000      -0.258826        -7.0430 
 104   2.0000      -0.254126        -6.9151 
 105   2.0000      -0.241160        -6.5623 
 106   0.0000      -0.069756        -1.8982 
 107   0.0000      -0.063212        -1.7201 
 108   0.0000      -0.024071        -0.6550 
 109   0.0000      -0.021902        -0.5960 
 110   0.0000      -0.008916        -0.2426 
 111   0.0000      -0.007442        -0.2025 
 112   0.0000      -0.005195        -0.1414 
 113   0.0000       0.058739         1.5984 
 114   0.0000       0.066391         1.8066 
 115   0.0000       0.068849         1.8735 
 116   0.0000       0.071222         1.9381 
*Only the first 10 virtual orbitals were printed.

                    ********************************
                    * MULLIKEN POPULATION ANALYSIS *
                    ********************************

-----------------------
MULLIKEN ATOMIC CHARGES
-----------------------
   0 O :   -0.294239
   1 C :    0.298353
   2 C :   -0.187424
   3 C :    0.066450
   4 C :    0.202931
   5 O :   -0.324726
   6 C :    0.182422
   7 C :   -0.011487
   8 O :   -0.261826
   9 C :   -0.184120
  10 C :    0.221819
  11 O :   -0.246127
  12 C :    0.041227
  13 C :   -0.043784
  14 C :    0.025534
  15 C :    0.025690
  16 C :   -0.029204
  17 C :    0.182569
  18 O :   -0.270948
  19 C :    0.312585
  20 O :   -0.295646
  21 C :    0.224746
  22 O :   -0.262753
  23 C :    0.047080
  24 C :   -0.044827
  25 C :    0.025348
  26 C :    0.025136
  27 C :   -0.029768
  28 C :    0.180637
  29 O :   -0.270046
  30 H :    0.049679
  31 H :    0.027261
  32 H :    0.026491
  33 H :    0.030647
  34 H :    0.024104
  35 H :    0.023689
  36 H :    0.212281
  37 H :    0.005367
  38 H :    0.012342
  39 H :    0.020178
  40 H :    0.005915
  41 H :    0.214135
  42 H :    0.004701
  43 H :    0.012113
  44 H :    0.019812
  45 H :    0.005683
Sum of atomic charges:   -0.0000000

--------------------------------
MULLIKEN REDUCED ORBITAL CHARGES
--------------------------------
  0 O s       :     3.734204  s :     3.734204
      pz      :     1.667772  p :     4.544406
      px      :     1.387983
      py      :     1.488651
      dz2     :     0.002170  d :     0.015629
      dxz     :     0.004550
      dyz     :     0.001468
      dx2y2   :     0.003529
      dxy     :     0.003912

  1 C s       :     3.035830  s :     3.035830
      pz      :     0.929091  p :     2.542505
      px      :     0.765971
      py      :     0.847443
      dz2     :     0.024874  d :     0.123312
      dxz     :     0.034954
      dyz     :     0.011996
      dx2y2   :     0.027151
      dxy     :     0.024337

  2 C s       :     3.155518  s :     3.155518
      pz      :     0.935518  p :     2.995315
      px      :     0.947546
      py      :     1.112251
      dz2     :     0.008542  d :     0.036591
      dxz     :     0.009738
      dyz     :     0.004167
      dx2y2   :     0.006972
      dxy     :     0.007173

  3 C s       :     2.995663  s :     2.995663
      pz      :     0.986640  p :     2.897230
[...]
129:   3130.60   0.008820   44.57  0.000879  (-0.012986  0.013476  0.022998)
130:   3190.90   0.000436    2.20  0.000043  ( 0.000094 -0.001736  0.006295)
131:   3191.51   0.000469    2.37  0.000046  (-0.000994  0.000055  0.006702)
132:   3202.22   0.001150    5.81  0.000112  ( 0.010378  0.001461 -0.001491)
133:   3202.68   0.001080    5.46  0.000105  ( 0.005391  0.008710 -0.000525)
134:   3212.95   0.000063    0.32  0.000006  ( 0.001434 -0.000900  0.001801)
135:   3213.26   0.000046    0.23  0.000004  ( 0.000138 -0.001212 -0.001729)
136:   3219.72   0.000565    2.85  0.000055  ( 0.004141  0.006132  0.000029)
137:   3220.25   0.000494    2.50  0.000048  (-0.006800 -0.001000  0.000809)

* The epsilon (eps) is given for a Dirac delta lineshape.
** The dipole moment derivative (T) already includes vibrational overlap.

The first frequency considered to be a vibration is 6
The total number of vibrations considered is 132


--------------------------
THERMOCHEMISTRY AT 298.15K
--------------------------

Temperature         ...   298.15 K
Pressure            ...     1.00 atm
Total Mass          ...   408.36 AMU
Quasi RRHO          ...     True
Cut-Off Frequency   ...     1.00 cm^-1

Throughout the following assumptions are being made:
  (1) The electronic state is orbitally nondegenerate
  (2) There are no thermally accessible electronically excited states
  (3) Hindered rotations indicated by low frequency modes are not
      treated as such but are treated as vibrations and this may
      cause some error
  (4) All equations used are the standard statistical mechanics
      equations for an ideal gas
  (5) All vibrations are strictly harmonic

freq.      21.55  E(vib)   ...       0.56 
freq.      26.93  E(vib)   ...       0.55 
freq.      43.98  E(vib)   ...       0.53 
freq.      47.30  E(vib)   ...       0.53 
freq.      64.33  E(vib)   ...       0.51 
freq.      78.52  E(vib)   ...       0.49 
freq.      86.15  E(vib)   ...       0.48 
freq.     107.71  E(vib)   ...       0.45 
freq.     129.18  E(vib)   ...       0.43 
freq.     139.10  E(vib)   ...       0.42 
freq.     155.88  E(vib)   ...       0.40 
freq.     161.32  E(vib)   ...       0.39 
freq.     165.22  E(vib)   ...       0.39 
freq.     179.98  E(vib)   ...       0.37 
freq.     194.25  E(vib)   ...       0.36 
freq.     204.22  E(vib)   ...       0.35 
freq.     240.72  E(vib)   ...       0.31 
freq.     274.15  E(vib)   ...       0.28 
freq.     290.23  E(vib)   ...       0.27 
freq.     294.31  E(vib)   ...       0.27 
freq.     299.53  E(vib)   ...       0.26 
freq.     319.29  E(vib)   ...       0.25 
freq.     328.32  E(vib)   ...       0.24 
freq.     332.37  E(vib)   ...       0.24 
freq.     391.15  E(vib)   ...       0.20 
freq.     398.96  E(vib)   ...       0.19 
freq.     415.73  E(vib)   ...       0.18 
freq.     422.30  E(vib)   ...       0.18 
freq.     450.21  E(vib)   ...       0.17 
freq.     457.04  E(vib)   ...       0.16 
freq.     463.11  E(vib)   ...       0.16 
freq.     476.96  E(vib)   ...       0.15 
freq.     527.18  E(vib)   ...       0.13 
freq.     546.06  E(vib)   ...       0.12 
freq.     547.50  E(vib)   ...       0.12 
freq.     554.17  E(vib)   ...       0.12 
freq.     567.24  E(vib)   ...       0.11 
freq.     571.09  E(vib)   ...       0.11 
freq.     602.18  E(vib)   ...       0.10 
freq.     670.35  E(vib)   ...       0.08 
freq.     674.08  E(vib)   ...       0.08 
freq.     687.47  E(vib)   ...       0.07 
freq.     687.98  E(vib)   ...       0.07 
freq.     691.19  E(vib)   ...       0.07 
freq.     696.44  E(vib)   ...       0.07 
freq.     731.00  E(vib)   ...       0.06 
freq.     739.91  E(vib)   ...       0.06 
freq.     766.26  E(vib)   ...       0.06 
freq.     771.07  E(vib)   ...       0.05 
freq.     779.21  E(vib)   ...       0.05 
freq.     783.98  E(vib)   ...       0.05 
freq.     798.24  E(vib)   ...       0.05 
freq.     809.30  E(vib)   ...       0.05 
freq.     816.60  E(vib)   ...       0.05 
freq.     823.08  E(vib)   ...       0.05 
freq.     836.38  E(vib)   ...       0.04 
freq.     874.78  E(vib)   ...       0.04 
freq.     885.41  E(vib)   ...       0.04 
freq.     899.63  E(vib)   ...       0.03 
freq.     900.40  E(vib)   ...       0.03 
freq.     903.36  E(vib)   ...       0.03 
freq.     911.15  E(vib)   ...       0.03 
freq.     928.99  E(vib)   ...       0.03 
freq.     993.66  E(vib)   ...       0.02 
freq.     994.90  E(vib)   ...       0.02 
freq.     995.52  E(vib)   ...       0.02 
freq.    1003.06  E(vib)   ...       0.02 
freq.    1032.13  E(vib)   ...       0.02 
freq.    1033.22  E(vib)   ...       0.02 
freq.    1047.70  E(vib)   ...       0.02 
freq.    1051.70  E(vib)   ...       0.02 
freq.    1054.96  E(vib)   ...       0.02 
freq.    1104.98  E(vib)   ...       0.02 
freq.    1120.98  E(vib)   ...       0.01 
freq.    1122.62  E(vib)   ...       0.01 
freq.    1129.55  E(vib)   ...       0.01 
freq.    1145.99  E(vib)   ...       0.01 
freq.    1154.44  E(vib)   ...       0.01 
freq.    1156.37  E(vib)   ...       0.01 
freq.    1165.18  E(vib)   ...       0.01 
freq.    1192.39  E(vib)   ...       0.01 
freq.    1219.06  E(vib)   ...       0.01 
freq.    1242.43  E(vib)   ...       0.01 
freq.    1255.38  E(vib)   ...       0.01 
freq.    1268.48  E(vib)   ...       0.01 
freq.    1281.20  E(vib)   ...       0.01 
freq.    1287.27  E(vib)   ...       0.01 
freq.    1294.36  E(vib)   ...       0.01 
freq.    1300.06  E(vib)   ...       0.01 
freq.    1326.95  E(vib)   ...       0.01 
freq.    1356.63  E(vib)   ...       0.01 
freq.    1367.72  E(vib)   ...       0.01 
freq.    1369.73  E(vib)   ...       0.01 
freq.    1377.05  E(vib)   ...       0.01 
freq.    1382.61  E(vib)   ...       0.01 
freq.    1394.66  E(vib)   ...       0.00 
freq.    1395.74  E(vib)   ...       0.00 
freq.    1413.70  E(vib)   ...       0.00 
freq.    1440.60  E(vib)   ...       0.00 
freq.    1454.29  E(vib)   ...       0.00 
freq.    1479.57  E(vib)   ...       0.00 
freq.    1482.25  E(vib)   ...       0.00 
freq.    1483.91  E(vib)   ...       0.00 
freq.    1486.41  E(vib)   ...       0.00 
freq.    1490.39  E(vib)   ...       0.00 
freq.    1540.54  E(vib)   ...       0.00 
freq.    1542.04  E(vib)   ...       0.00 
freq.    1605.80  E(vib)   ...       0.00 
freq.    1608.69  E(vib)   ...       0.00 
freq.    1645.54  E(vib)   ...       0.00 
freq.    1650.70  E(vib)   ...       0.00 
freq.    1660.09  E(vib)   ...       0.00 
freq.    1661.05  E(vib)   ...       0.00 
freq.    1698.10  E(vib)   ...       0.00 
freq.    1702.39  E(vib)   ...       0.00 
freq.    1804.34  E(vib)   ...       0.00 
freq.    3037.43  E(vib)   ...       0.00 
freq.    3058.56  E(vib)   ...       0.00 
freq.    3060.72  E(vib)   ...       0.00 
freq.    3064.35  E(vib)   ...       0.00 
freq.    3109.70  E(vib)   ...       0.00 
freq.    3110.36  E(vib)   ...       0.00 
freq.    3129.56  E(vib)   ...       0.00 
freq.    3130.60  E(vib)   ...       0.00 
freq.    3190.90  E(vib)   ...       0.00 
freq.    3191.51  E(vib)   ...       0.00 
freq.    3202.22  E(vib)   ...       0.00 
freq.    3202.68  E(vib)   ...       0.00 
freq.    3212.95  E(vib)   ...       0.00 
freq.    3213.26  E(vib)   ...       0.00 
freq.    3219.72  E(vib)   ...       0.00 
freq.    3220.25  E(vib)   ...       0.00 

------------
INNER ENERGY
------------

The inner energy is: U= E(el) + E(ZPE) + E(vib) + E(rot) + E(trans)
    E(el)   - is the total energy from the electronic structure calculation
              = E(kin-el) + E(nuc-el) + E(el-el) + E(nuc-nuc)
    E(ZPE)  - the the zero temperature vibrational energy from the frequency calculation
    E(vib)  - the the finite temperature correction to E(ZPE) due to population
              of excited vibrational states
    E(rot)  - is the rotational thermal energy
    E(trans)- is the translational thermal energy

Summary of contributions to the inner energy U:
Electronic energy                ...  -1448.13295932 Eh
Zero point energy                ...      0.34506379 Eh     216.53 kcal/mol
Thermal vibrational correction   ...      0.02112348 Eh      13.26 kcal/mol
Thermal rotational correction    ...      0.00141627 Eh       0.89 kcal/mol
Thermal translational correction ...      0.00141627 Eh       0.89 kcal/mol
-----------------------------------------------------------------------
Total thermal energy                  -1447.76393950 Eh


Summary of corrections to the electronic energy:
(perhaps to be used in another calculation)
Total thermal correction                  0.02395602 Eh      15.03 kcal/mol
Non-thermal (ZPE) correction              0.34506379 Eh     216.53 kcal/mol
-----------------------------------------------------------------------
Total correction                          0.36901982 Eh     231.56 kcal/mol


--------
ENTHALPY
--------

The enthalpy is H = U + kB*T
                kB is Boltzmann's constant
Total thermal energy              ...  -1447.76393950 Eh 
Thermal Enthalpy correction       ...      0.00094421 Eh       0.59 kcal/mol
-----------------------------------------------------------------------
Total Enthalpy                    ...  -1447.76299529 Eh


Note: Only C1 symmetry has been detected, increase convergence thresholds 
      if your molecule has a higher symmetry. Symmetry factor of 1.0 is   
      used for the rotational entropy correction. 
 

Note: Rotational entropy computed according to Herzberg 
Infrared and Raman Spectra, Chapter V,1, Van Nostrand Reinhold, 1945 
Point Group:  C1, Symmetry Number:   1  
Rotational constants in cm-1:     0.008384     0.003593     0.003087 

Vibrational entropy computed according to the QRRHO of S. Grimme
Chem.Eur.J. 2012 18 9955 using a reference frequency of 100.0 cm-1


-------
ENTROPY
-------

The entropy contributions are T*S = T*(S(el)+S(vib)+S(rot)+S(trans))
     S(el)   - electronic entropy
     S(vib)  - vibrational entropy
     S(rot)  - rotational entropy
     S(trans)- translational entropy
The entropies will be listed as multiplied by the temperature to get
units of energy

Electronic entropy                ...      0.00000000 Eh      0.00 kcal/mol
Vibrational entropy               ...      0.03711428 Eh     23.29 kcal/mol
Rotational entropy                ...      0.01715445 Eh     10.76 kcal/mol
Translational entropy             ...      0.02086391 Eh     13.09 kcal/mol
-----------------------------------------------------------------------
Final entropy term                ...      0.07513265 Eh     47.15 kcal/mol

In case the symmetry of your molecule has not been determined correctly
or in case you have a reason to use a different symmetry number we print 
out the resulting rotational entropy values for sn=1,12:

 non-linear molecules -----------------------------------
|  sn= 1 | S(rot)=       0.01715445 Eh     10.76 kcal/mol|
|  sn= 2 | S(rot)=       0.01649999 Eh     10.35 kcal/mol|
|  sn= 3 | S(rot)=       0.01611716 Eh     10.11 kcal/mol|
|  sn= 4 | S(rot)=       0.01584554 Eh      9.94 kcal/mol|
|  sn= 5 | S(rot)=       0.01563485 Eh      9.81 kcal/mol|
|  sn= 6 | S(rot)=       0.01546271 Eh      9.70 kcal/mol|
|  sn= 7 | S(rot)=       0.01531716 Eh      9.61 kcal/mol|
|  sn= 8 | S(rot)=       0.01519108 Eh      9.53 kcal/mol|
|  sn= 9 | S(rot)=       0.01507987 Eh      9.46 kcal/mol|
|  sn=10 | S(rot)=       0.01498039 Eh      9.40 kcal/mol|
|  sn=11 | S(rot)=       0.01489040 Eh      9.34 kcal/mol|
|  sn=12 | S(rot)=       0.01480825 Eh      9.29 kcal/mol|
 linear molecules ---------------------------------------
|  Dinfh | S(rot)=       0.01078383 Eh      6.77 kcal/mol|
|  Cinfv | S(rot)=       0.01143829 Eh      7.18 kcal/mol|
 --------------------------------------------------------


-------------------
GIBBS FREE ENERGY
-------------------

The Gibbs free energy is G = H - T*S

Total enthalpy                    ...  -1447.76299529 Eh 
Total entropy correction          ...     -0.07513265 Eh    -47.15 kcal/mol
-----------------------------------------------------------------------
Final Gibbs free energy         ...  -1447.83812794 Eh

For completeness - the Gibbs free energy minus the electronic energy
G-E(el)                           ...      0.29483138 Eh    185.01 kcal/mol


Maximum memory used throughout the entire PROP-calculation: 329.7 MB

--------------------------------
SUGGESTED CITATIONS FOR THIS RUN
--------------------------------

Below you find a list of papers that are relevant to this ORCA run
We neither can nor want to force you to cite these papers, but we appreciate if you do
You receive ORCA, which is the product of decades of hard work by many enthusiastic individuals, for free
The only thing we kindly ask in return is that you cite our papers,
We deeply appreciate it, if you show your appreciation for ORCA by not just citing the generic ORCA reference.

Please note that relegating all ORCA citations to the supporting information does *not* help us.
SI sections are not indexed - citations you put there will not count into any citation statistics
But we need these citations in order to attract the funding resources that allow us to do what we are doing

Therefore, if you are a happy ORCA user, please consider citing a few of the papers listed below in the main body of your paper

In addition to the list printed below, the program has created the file D:\Makaleler\coumarin-logp-working-source\dft\molecules\CMR_GOLD_016\input\CMR_GOLD_016_optfreq.bibtex that contains the list in bibtex format
You can import this file easily into all common literature databanks and citation aid programs

It goes without saying that in many instances, there are alternative algorithms to achieve similar
results as the ones you have gotten from ORCA. It is, of course, also the case that in some instances
ORCA just re-implements algorithms worked out by others. We are fully aware of that and we are also
fully appreciative of our colleagues work. Hence this citation list should not be read as indicating
that the listed papers, which are focused on our own work, are the only ones worth citing. It simply
meant to make it easier for users to cite ORCA specific papers. It is not a substitute for doing your
own literature research and citing the relevant literature in a scientifically appropriate manner.

List of essential papers. We consider these as the minimum necessary citations

  1. Neese, F.
     Software update: the ORCA program system, version 6.0
     WIRES Comput. Molec. Sci. 2025 15(1), e70019
     doi.org/10.1002/wcms.70019

List of papers to cite with high priority. The work reported in these papers was absolutely
necessary for this run to complete.
Our perspective: the developers of density functionals and basis sets usually get cited in chemistry papers
Good! But without the algorithms to do something with them, the functionals or basis sets would not do anything.
Hence, in our opinion, the algorithm design and method developments papers are equally worthy of getting cited

  1. Neese, F.
     An improvement of the resolution of the identity approximation for the formation of the Coulomb matrix
     J. Comp. Chem. 2003 24(14), 1740-1747
     doi.org/10.1002/jcc.10318
  2. Neese, F.; Wennmohs, F.; Hansen, A.; Becker, U.
     Efficient, approximate and parallel Hartree-Fock and hybrid DFT calculations. A 'chain-of-spheres' algorithm for the Hartree-Fock exchange
     Chem. Phys. 2009 356(1-3), 98-109
     doi.org/10.1016/j.chemphys.2008.10.036
  3. Grimme, S.; Antony, J.; Ehrlich, S.; Krieg, H.
     A consistent and accurate ab initio parametrization of density functional dispersion correction (DFT-D) for the 94 elements H-Pu
     J. Chem. Phys. 2010 132 , 154104
     doi.org/10.1063/1.3382344
  4. Grimme, S.; Ehrlich, S.; Goerigk, L.
     Effect of the damping function in dispersion corrected density functional theory
     J. Comput. Chem. 2011 32(7), 1456-1465
     doi.org/10.1002/jcc.21759
  5. Bykov, D.; Petrenko, T.; Izsak, R.; Kossmann, S.; Becker, U.; Valeev, E.; Neese, F.
     Efficient implementation of the analytic second derivatives of Hartree-Fock and hybrid DFT energies: a detailed analysis of different approximations
     Molec. Phys. 2015 113 , 1961-1977
     doi.org/10.1080/00268976.2015.1025114
  6. Garcia-Rates, M.; Neese, F.
     Efficient implementation of the analytical second derivatives of hartree-fock and hybrid DFT energies within the framework of the conductor-like polarizable continuum model
     J. Comput. Chem. 2019 40 , 1816-1828
     doi.org/10.1002/jcc.25833
  7. Garcia-Rates, M.; Neese, F.
     Effect of the Solute Cavity on the Solvation Energy and its Derivatives within the Framework of the Gaussian Charge Scheme
     J. Comput. Chem. 2020 41 , 922-939
     doi.org/10.1002/jcc.26139
  8. Helmich-Paris, B.; de Souza, B.; Neese, F.; Izsák, R.
     An improved chain of spheres for exchange algorithm
     J. Chem. Phys. 2021 155(10), 104109
     doi.org/10.1063/5.0058766
  9. Neese, F.
     The SHARK Integral Generation and Digestion System
     J. Comp. Chem. 2022 44(3), 381
     doi.org/10.1002/jcc.26942

List of suggested additional citations. These are papers that are important in the 'surrounding' of 
of this run, or papers that preceded the highly important papers. If you like your results we are grateful for a citation.

  1. Izsak, R.; Neese, F.
     An overlap fitted chain of spheres exchange method
     J. Chem. Phys. 2011 135 , 144105
     doi.org/10.1063/1.3646921
  2. Izsak, R.; Hansen, A.; Neese, F.
     The resolution of identity and chain of spheres approximations for the LPNO-CCSD singles Fock term
     Molec. Phys. 2012 110 , 2413-2417
     doi.org/10.1080/00268976.2012.687466
  3. Neese, F.
     The ORCA program system
     WIRES Comput. Molec. Sci. 2012 2(1), 73-78
     doi.org/10.1002/wcms.81
  4. Izsak, R.; Neese, F.; Klopper, W.
     Robust fitting techniques in the chain of spheres approximation to the Fock exchange: The role of the complementary space
     J. Chem. Phys. 2013 139 , 
     doi.org/10.1063/1.4819264
  5. Neese, F.
     Software update: the ORCA program system, version 4.0
     WIRES Comput. Molec. Sci. 2018 8(1), 1-6
     doi.org/10.1002/wcms.1327
  6. Neese, F.; Wennmohs, F.; Becker, U.; Riplinger, C.
     The ORCA quantum chemistry program package
     J. Chem. Phys. 2020 152(22), 224108
     doi.org/10.1063/5.0004608
  7. Neese, F.
     Software update: The ORCA program system—Version 5.0
     WIRES Comput. Molec. Sci. 2022 12(1), e1606
     doi.org/10.1002/wcms.1606

List of optional additional citations

  1. Neese, F.
     Approximate second-order SCF convergence for spin unrestricted wavefunctions
     Chem. Phys. Lett. 2000 325(1-3), 93-98
     doi.org/10.1016/s0009-2614(00)00662-x

Timings for individual modules:

Sum of individual times          ...     1479.321 sec (=  24.655 min)
Startup calculation              ...       34.180 sec (=   0.570 min)   2.3 %
SCF iterations                   ...      472.314 sec (=   7.872 min)  31.9 %
Property integrals               ...      167.115 sec (=   2.785 min)  11.3 %
SCF Response                     ...      336.212 sec (=   5.604 min)  22.7 %
Property calculations            ...      241.377 sec (=   4.023 min)  16.3 %
SCF Gradient evaluation          ...      227.741 sec (=   3.796 min)  15.4 %
Geometry relaxation              ...        0.382 sec (=   0.006 min)   0.0 %
                             ****ORCA TERMINATED NORMALLY****
TOTAL RUN TIME: 0 days 0 hours 24 minutes 43 seconds 288 msec
