
                                 *****************
                                 * O   R   C   A *
                                 *****************

                                            #,                                       
                                            ###                                      
                                            ####                                     
                                            #####                                    
                                            ######                                   
                                           ########,                                 
                                     ,,################,,,,,                         
                               ,,#################################,,                 
                          ,,##########################################,,             
                       ,#########################################, ''#####,          
                    ,#############################################,,   '####,        
                  ,##################################################,,,,####,       
                ,###########''''           ''''###############################       
              ,#####''   ,,,,##########,,,,          '''####'''          '####       
            ,##' ,,,,###########################,,,                        '##       
           ' ,,###''''                  '''############,,,                           
         ,,##''                                '''############,,,,        ,,,,,,###''
      ,#''                                            '''#######################'''  
     '                                                          ''''####''''         
             ,#######,   #######,   ,#######,      ##                                
            ,#'     '#,  ##    ##  ,#'     '#,    #''#        ,####,    ,#,          
            ##       ##  ##   ,#'  ##            #'  '#       #'       ,# #          
            ##       ##  #######   ##           ,######,      #####,      #          
            '#,     ,#'  ##    ##  '#,     ,#' ,#      #,     #,   #      #          
             '#######'   ##     ##  '#######'  #'      '#     '####' #    #          



                #########################################################
                #                        -***-                          #
                #          Department of theory and spectroscopy        #
                #                                                       #
                #                      Frank Neese                      #
                #                                                       #
                #     Directorship, Architecture, Infrastructure        #
                #                    SHARK, DRIVERS                     #
                #        Core code/Algorithms in most modules           #
                #                                                       #
                #        Max Planck Institute fuer Kohlenforschung      #
                #                Kaiser Wilhelm Platz 1                 #
                #                 D-45470 Muelheim/Ruhr                 #
                #                      Germany                          #
                #                                                       #
                #                  All rights reserved                  #
                #                        -***-                          #
                #########################################################


                         Program Version 6.1.1  -  RELEASE   -


 With contributions from (in alphabetic order):
[Max-Planck-Institut fuer Kohlenforschung]                               
  Daniel Aravena         : Magnetic Suceptibility                        
  Michael Atanasov       : Ab Initio Ligand Field Theory (pilot matlab implementation)
  Alexander A. Auer      : GIAO ZORA, VPT2 properties, NMR spectrum      
  Ute Becker             : All parallelization in ORCA, NUMFREQ, NUMCALC 
  Giovanni Bistoni       : ED, misc. LED, open-shell LED, HFLD           
  Dmytro Bykov           : pre 5.0 version of the SCF Hessian            
  Marcos Casanova-Páez   : Triplet and SCS-CIS(D). UHF-(DLPNO)-IP/EA/STEOM-CCSD. UHF-CVS-IP/STEOM-CCSD   
  Vijay G. Chilkuri      : MRCI spin determinant printing, contributions to CSF-ICE 
  Pauline Colinet        : FMM embedding                                 
  Dipayan Datta          : RHF DLPNO-CCSD density                        
  Achintya Kumar Dutta   : EOM-CC, STEOM-CC                              
  Nicolas Foglia         : Exact transition moments, OPA infrastructure, MCD improvements    
  Dmitry Ganyushin       : Spin-Orbit,Spin-Spin,Magnetic field MRCI      
  Miquel Garcia-Rates    : C-PCM and meta-GGA Hessian, CCSD/C-PCM, Gaussian charge scheme 
  Tiago L. C. Gouveia    : GS-ROHF, GS-ROCIS                             
  Yang Guo               : DLPNO-NEVPT2, F12-NEVPT2, CIM, IAO-localization        
  Andreas Hansen         : Spin unrestricted coupled pair/coupled cluster methods 
  Ingolf Harden          : AUTO-CI MPn and infrastructure                
  Benjamin Helmich-Paris : MC-RPA, TRAH-(SCF,CASSCF), AVAS, COSX integrals, SCF dyn. polar., MC-PDFT, srDFT 
  Lee Huntington         : MR-EOM, pCC                                   
  Robert Izsak           : Overlap fitted RIJCOSX, COSX-SCS-MP3, EOM     
  Riya Kayal             : Wick's Theorem for AUTO-CI, AUTO-CI UHF-CCSDT 
  Emily Kempfer          : AUTO-CI RHF CISDT and CCSDT, approximate NEVPT4
  Christian Kollmar      : KDIIS, OOCD, Brueckner-CCSD(T), CCSD density, CASPT2, CASPT2-K, improved NEVPT2 
  Axel Koslowski         : Symmetry handling                             
  Simone Kossmann        : meta-GGA functionals, TD-DFT gradient, OOMP2, (MP2 Hessian; deprecated post 5.0) 
  Lucas Lang             : DCDCAS, Hyperfine gauge corrections, ICE-SOC+SSC
  Marvin Lechner         : AUTO-CI (C++ implementation), FIC-MRCC        
  Spencer Leger          : CASSCF response                               
  Dagmar Lenk            : GEPOL surface, SMD, ORCA-2-JSON               
  Dimitrios Liakos       : Extrapolation schemes; Compound Job, Property file
  Dimitrios Manganas     : Further ROCIS development; embedding schemes. LFT, Crystal Embedding 
  Dimitrios Pantazis     : SARC Basis sets                               
  Anastasios Papadopoulos: AUTO-CI, single reference methods and gradients 
  Taras Petrenko         : pre 6.0 DFT Hessian and TD-DFT gradient,  ECA, NRVS 
  Petra Pikulova         : Analytic Raman intensities                    
  Peter Pinski           : DLPNO-MP2, DLPNO-MP2 Gradient                 
  Shashank Vittal Rao    : ES-AILFT, MagRelax                            
  Christoph Reimann      : Effective Core Potentials                     
  Marius Retegan         : Local ZFS, SOC                                
  Christoph Riplinger    : Optimizer, TS searches, QM/MM, DLPNO-CCSD(T), (RO)-DLPNO pert. Triples 
  Michael Roemelt        : Original ROCIS implementation, recursive CI coupling coefficients
  Masaaki Saitow         : Open-shell DLPNO-CCSD energy and density      
  Barbara Sandhoefer     : DKH picture change effects                    
  Yorick L. A. Schmerwitz: GMF and freeze-and-release deltaSCF, NEB S-IDPP initial path                    
  Kantharuban Sivalingam : CASSCF convergence/infrastructure, NEVPT2, NEVPT3, NEVPT4(SD), FIC-MRCI and CEPA variants
  Bernardo de Souza      : ESD, SOC TD-DFT                               
  Georgi L. Stoychev     : AutoAux, RI-MP2 NMR, DLPNO-MP2 response, X2C  
  Van Anh Tran           : RI-MP2 g-tensors                              
  Willem Van den Heuvel  : Paramagnetic NMR                              
  Zikuan Wang            : NOTCH, Electric field optimization            
  Frank Wennmohs         : Technical directorship and infrastructure     
  Hang Xu                : AUTO-CI-Response properties                   
                                                                         
[FACCTs GmbH]                                                            
  Markus Bursch, Nicolas Foglia, Miquel Garcia-Rates, Ingolf Harden, Hagen Neugebauer, Anastasios Papadopoulos, 
  Christoph Riplinger, Bernardo de Souza, Georgi L. Stoychev                                                    
                                                                 
  APM, various basis sets, CI-OPT, improved COSX, DLPNO-Multilevel,           
  DOCKER, DRACO, updates on ESD, Fragmentator, GOAT, IRC, LR-CPCM, L-BFGS, MBIS, meta-GGA TD-DFT gradient, ML-optimized integration grids, 
  MM, NACMEs, nearIR, NEB, NEB-TS, NL-DFT gradient (VV10), 2- and 3-layer-ONIOM, interface openCOSMO-RS, QMMM,   
  Crystal-QMMM, RESP, rigid body optimization, SF, symmetry and pop. for TD-DFT, various functionals, SOLVATOR                                   
                                                                         
[Other institutions]                                                     
  V. Asgeirsson          : NEB                                           
  Christoph Bannwarth    : sTDA-DFT, sTD-DFT, PBEh-3c, B97-3c, D3        
  Giovanni Bistoni       : ETS/NOCV, ADLD/ADEX, COVALED                  
  Martin Brehm           : Molecular dynamics                            
  Ronald Cardenas        : ETS/NOCV                                      
  Martina Colucci        : COVALED                                       
  Sebastian Ehlert       : rSCAN, r2SCAN, r2SCAN-3c, D4, dhf basis sets  
  Marvin Friede          : D4 for Fr, Ra, Ac-Lr                          
  Lars Goerigk           : TD-DFT with DH, B97 family of functionals     
  Stefan Grimme          : VdW corrections, initial TS optimization, DFT functionals, gCP, sTDA/sTD-DF 
  Waldemar Hujo          : DFT-NL                                        
  H. Jonsson             : NEB                                           
  Holger Kruse           : gCP                                           
  Marcel Mueller         : wB97X-3c, vDZP basis set                      
  Hagen Neugebauer       : wr2SCAN, Native XTB                           
  Gianluca Regni         : ADLD/ADEX                                     
  Tobias Risthaus        : pre 6.0 range-separated hybrid DFT and stability analysis
  Lukas Wittmann         : regularized MP2, r2SCAN double-hybrids, wr2SCAN        
                                                                         
We gratefully acknowledge several colleagues who have allowed us to      
interface, adapt or use parts of their codes:                            
  Ed Valeev, F. Pavosevic, A. Kumar             : LibInt (2-el integral package), F12 methods 
  Garnet Chan, S. Sharma, J. Yang, R. Olivares  : DMRG                   
  Ulf Ekstrom                                   : XCFun DFT Library      
  Mihaly Kallay                                 : mrcc  (arbitrary order and MRCC methods)
  Frank Weinhold                                : gennbo (NPA and NBO analysis)           
  Simon Mueller                                 : openCOSMO-RS                            
  Christopher J. Cramer and Donald G. Truhlar   : smd solvation model                     
  S Lehtola, MJT Oliveira, MAL Marques          : LibXC Library                           
  Liviu Ungur et al                             : ANISO software                          


 Your calculation uses the libint2 library for the computation of 2-el integrals
 For citations please refer to: http://libint.valeyev.net

 Your ORCA version has been built with support for libXC version: 7.0.0
 For citations please refer to: https://libxc.gitlab.io

 This ORCA versions uses:
   CBLAS   interface :  Fast vector & matrix operations
   LAPACKE interface :  Fast linear algebra routines
   Shared memory     :  Shared parallel matrices


  ***********************************
  * Starting time: Tue Jun  2 11:30:44 2026
  * Host name:     AHMET
  * Process ID:    36764
  * Working dir.:  D:\Makaleler\coumarin-logp-working-source\dft\molecules\CMR_GOLD_016
  ***********************************

NOTE: MaxCore=3000 MB was set to SCF,MP2,MDCI,CIPSI,MRCI,RASCI and CIS
      => If you want to overwrite this, your respective input block should be placed after the MaxCore statement


***************************************
The coordinates will be read from file: geometry/CMR_GOLD_016_opt.xyz
***************************************


Your calculation utilizes the atom-pairwise dispersion correction
with the Becke-Johnson damping scheme (D3BJ)


================================================================================

----- Orbital basis set information -----
Your calculation utilizes the basis: def2-SVP
   F. Weigend and R. Ahlrichs, Phys. Chem. Chem. Phys. 7, 3297 (2005).

----- AuxJ basis set information -----
Your calculation utilizes the auxiliary basis: def2/J
   H-Rn: F. Weigend, Phys. Chem. Chem. Phys. 8, 1057 (2006).
   Fr-Lr: K. Eichkorn, F. Weigend, O. Treutler, R. Ahlrichs; Theor. Chem. Acc. 97, 119 (1997).

================================================================================
                                        WARNINGS
                       Please study these warnings very carefully!
================================================================================


================================================================================
                                       INPUT FILE
================================================================================
NAME = D:\Makaleler\coumarin-logp-working-source\dft\molecules\CMR_GOLD_016\input\CMR_GOLD_016_sp.inp
|  1> ! B3LYP D3BJ def2-SVP TightSCF RIJCOSX def2/J CPCM(Water)

|  2> 

|  3> %pal

|  4>   nprocs 8

|  5> end

|  6> 

|  7> %maxcore 3000

|  8> 

|  9> %scf

| 10>   MaxIter 500

| 11> end

| 12> 

| 13> %output

| 14>   Print[P_Mulliken] 1

| 15>   Print[P_Loewdin] 1

| 16> end

| 17> 

| 18> * xyzfile 0 1 geometry/CMR_GOLD_016_opt.xyz

| 19> 
| 20>                          ****END OF INPUT****
================================================================================

                       ****************************
                       * Single Point Calculation *
                       ****************************

---------------------------------
CARTESIAN COORDINATES (ANGSTROEM)
---------------------------------
  O     -0.473496   -0.525101    2.904275
  C      0.495009   -0.106975    2.262938
  C      0.426902    0.409552    0.921159
  C     -0.978358    0.555151    0.375911
  C     -1.294637    1.862041   -0.361630
  O     -0.385168    2.803157   -0.136674
  C     -0.568118    4.087301   -0.774818
  C      0.696230    4.886627   -0.553458
  O     -2.299473    2.025574   -1.015037
  C     -1.474692   -0.644416   -0.397264
  C     -2.152183   -1.681757    0.213671
  O     -2.361598   -1.769681    1.516592
  C     -2.699289   -2.746077   -0.607892
  C     -3.471435   -3.804436   -0.088832
  C     -3.987727   -4.774554   -0.939358
  C     -3.735622   -4.707281   -2.321340
  C     -2.967036   -3.675169   -2.854054
  C     -2.453618   -2.702421   -1.992286
  O     -1.681136   -1.718491   -2.540015
  C     -1.147235   -0.716855   -1.792294
  O     -0.405343    0.073529   -2.382334
  C      1.593476    0.651828    0.217382
  O      1.657162    0.960736   -1.063086
  C      2.863095    0.599543    0.922287
  C      4.092119    0.932459    0.317962
  C      5.269022    0.886930    1.055530
  C      5.239503    0.499893    2.407307
  C      4.037340    0.157208    3.021262
  C      2.858451    0.208879    2.272534
  O      1.699801   -0.157686    2.892435
  H     -1.627222    0.640216    1.262445
  H     -1.453712    4.572637   -0.334799
  H     -0.770936    3.917750   -1.843327
  H      0.602047    5.871924   -1.035372
  H      1.563202    4.365545   -0.988816
  H      0.882373    5.041377    0.520765
  H     -1.734002   -1.200029    2.051976
  H     -3.655932   -3.841312    0.985489
  H     -4.588862   -5.591356   -0.534340
  H     -4.141460   -5.472367   -2.987289
  H     -2.751940   -3.607902   -3.921898
  H      0.811705    0.745161   -1.559661
  H      4.096810    1.228875   -0.731594
  H      6.218507    1.150264    0.584615
  H      6.166442    0.463183    2.984473
  H      3.991033   -0.153473    4.066460

----------------------------
CARTESIAN COORDINATES (A.U.)
----------------------------
  NO LB      ZA    FRAG     MASS         X           Y           Z
   0 O     8.0000    0    15.999   -0.894778   -0.992297    5.488284
   1 C     6.0000    0    12.011    0.935431   -0.202153    4.276333
   2 C     6.0000    0    12.011    0.806728    0.773941    1.740738
   3 C     6.0000    0    12.011   -1.848829    1.049083    0.710369
   4 C     6.0000    0    12.011   -2.446509    3.518748   -0.683382
   5 O     8.0000    0    15.999   -0.727862    5.297199   -0.258276
   6 C     6.0000    0    12.011   -1.073587    7.723880   -1.464194
   7 C     6.0000    0    12.011    1.315684    9.234387   -1.045884
   8 O     8.0000    0    15.999   -4.345374    3.827780   -1.918142
   9 C     6.0000    0    12.011   -2.786764   -1.217770   -0.750720
  10 C     6.0000    0    12.011   -4.067036   -3.178060    0.403780
  11 O     8.0000    0    15.999   -4.462773   -3.344212    2.865944
  12 C     6.0000    0    12.011   -5.100917   -5.189333   -1.148749
  13 C     6.0000    0    12.011   -6.560061   -7.189342   -0.167868
  14 C     6.0000    0    12.011   -7.535712   -9.022599   -1.775129
  15 C     6.0000    0    12.011   -7.059303   -8.895472   -4.386697
  16 C     6.0000    0    12.011   -5.606885   -6.945063   -5.393380
  17 C     6.0000    0    12.011   -4.636666   -5.106836   -3.764875
  18 O     8.0000    0    15.999   -3.176887   -3.247477   -4.799933
  19 C     6.0000    0    12.011   -2.167960   -1.354660   -3.386945
  20 O     8.0000    0    15.999   -0.765987    0.138950   -4.501959
  21 C     6.0000    0    12.011    3.011233    1.231776    0.410792
  22 O     8.0000    0    15.999    3.131582    1.815528   -2.008941
  23 C     6.0000    0    12.011    5.410465    1.132972    1.742870
  24 C     6.0000    0    12.011    7.732984    1.762092    0.600861
  25 C     6.0000    0    12.011    9.957009    1.676055    1.994663
  26 C     6.0000    0    12.011    9.901226    0.944661    4.549151
  27 C     6.0000    0    12.011    7.629467    0.297080    5.709358
  28 C     6.0000    0    12.011    5.401690    0.394724    4.294467
  29 O     8.0000    0    15.999    3.212158   -0.297983    5.465910
  30 H     1.0000    0     1.008   -3.075004    1.209833    2.385675
  31 H     1.0000    0     1.008   -2.747118    8.641032   -0.632678
  32 H     1.0000    0     1.008   -1.456858    7.403475   -3.483383
  33 H     1.0000    0     1.008    1.137704   11.096328   -1.956570
  34 H     1.0000    0     1.008    2.954024    8.249684   -1.868591
  35 H     1.0000    0     1.008    1.667443    9.526822    0.984103
  36 H     1.0000    0     1.008   -3.276789   -2.267726    3.877673
  37 H     1.0000    0     1.008   -6.908710   -7.259028    1.862304
  38 H     1.0000    0     1.008   -8.671692  -10.566132   -1.009756
  39 H     1.0000    0     1.008   -7.826225  -10.341275   -5.645158
  40 H     1.0000    0     1.008   -5.200413   -6.817947   -7.411313
  41 H     1.0000    0     1.008    1.533900    1.408150   -2.947332
  42 H     1.0000    0     1.008    7.741849    2.322237   -1.382512
  43 H     1.0000    0     1.008   11.751275    2.173684    1.104762
  44 H     1.0000    0     1.008   11.652887    0.875289    5.639837
  45 H     1.0000    0     1.008    7.541959   -0.290022    7.684496

--------------------------------
INTERNAL COORDINATES (ANGSTROEM)
--------------------------------
 O      0   0   0     0.000000000000     0.00000000     0.00000000
 C      1   0   0     1.234562446566     0.00000000     0.00000000
 C      2   1   0     1.439378195617   124.65816144     0.00000000
 C      3   2   1     1.514348083469   114.45959908     6.55917731
 C      4   3   2     1.533610317069   116.51709849   135.30676134
 O      5   4   3     1.327945175583   112.40930679   344.87951505
 C      6   5   4     1.445587866569   117.91080672   180.05586295
 C      7   6   5     1.512117114836   107.40562972   189.33251291
 O      5   4   3     1.209702085901   123.11135291   168.48072132
 C      4   3   2     1.510995700745   114.37635853   267.45865530
 C     10   4   3     1.381416656765   122.06974527    90.33631082
 O     11  10   4     1.322568865595   124.28145317   355.86641249
 C     11  10   4     1.451574249084   119.02111753   174.78174490
 C     13  11  10     1.409168727228   123.28004651   183.81939433
 C     14  13  11     1.389633347277   120.16223391   178.61318499
 C     15  14  13     1.406398533801   120.09482832     0.32302440
 C     16  15  14     1.392754043518   120.67836861     0.13857664
 C     17  16  15     1.397311990950   118.86615045   359.75009232
 O     18  17  16     1.365596478710   117.52080517   178.68671605
 C     19  18  17     1.359195220760   122.17599911   179.20068671
 O     20  19  18     1.234203309313   116.42680220   176.08368980
 C      3   2   1     1.383797175666   119.80420955   190.32993536
 O     22   3   2     1.318741202088   125.13797475   170.98956058
 C     22   3   2     1.453119811100   118.91776607   349.49411426
 C     24  22   3     1.409447324754   123.05075183   185.07156655
 C     25  24  22     1.389669067035   120.21036357   178.72787594
 C     26  25  24     1.406403238214   120.09111201     0.40062097
 C     27  26  25     1.392684325258   120.63404527     0.08391486
 C     28  27  26     1.397513071333   118.87359661   359.77203417
 O      2   1   3     1.360280060059   116.21827667   180.38853500
 H      4   3   2     1.101908833741   105.31812502    23.71074894
 H      7   6   5     1.101564562835   108.46914366    67.63150062
 H      7   6   5     1.100724382307   108.36135293   310.73149389
 H      8   7   6     1.100873162128   109.72455498   179.38959695
 H      8   7   6     1.101228172393   110.50399160    59.75150091
 H      8   7   6     1.101159313032   111.00454343   299.18770803
 H     12  11  10     1.002504946509   112.90546908   340.34168333
 H     14  13  11     1.090671624929   118.74458642   358.86688612
 H     15  14  13     1.092047790050   119.97838561   180.23011687
 H     16  15  14     1.092496746101   119.92696445   179.89691468
 H     17  16  15     1.091367008316   121.91656095   179.48452478
 H     23  22   3     1.003920738953   112.91156014   342.92635593
 H     25  24  22     1.090620120699   118.72269357   359.03012239
 H     26  25  24     1.092074859158   119.97032777   180.29057997
 H     27  26  25     1.092558522633   119.94647890   179.88958657
 H     28  27  26     1.091377973579   121.92849337   179.52073033

---------------------------
INTERNAL COORDINATES (A.U.)
---------------------------
 O      0   0   0     0.000000000000     0.00000000     0.00000000
 C      1   0   0     2.332984919233     0.00000000     0.00000000
 C      2   1   0     2.720030592855   124.65816144     0.00000000
 C      3   2   1     2.861703149184   114.45959908     6.55917731
 C      4   3   2     2.898103495417   116.51709849   135.30676134
 O      5   4   3     2.509452702713   112.40930679   344.87951505
 C      6   5   4     2.731765170335   117.91080672   180.05586295
 C      7   6   5     2.857487229455   107.40562972   189.33251291
 O      5   4   3     2.286005645987   123.11135291   168.48072132
 C      4   3   2     2.855368063941   114.37635853   267.45865530
 C     10   4   3     2.610499158122   122.06974527    90.33631082
 O     11  10   4     2.499292949226   124.28145317   355.86641249
 C     11  10   4     2.743077793822   119.02111753   174.78174490
 C     13  11  10     2.662942970947   123.28004651   183.81939433
 C     14  13  11     2.626026452918   120.16223391   178.61318499
 C     15  14  13     2.657708064033   120.09482832     0.32302440
 C     16  15  14     2.631923714161   120.67836861     0.13857664
 C     17  16  15     2.640536986539   118.86615045   359.75009232
 O     18  17  16     2.580603354209   117.52080517   178.68671605
 C     19  18  17     2.568506729772   122.17599911   179.20068671
 O     20  19  18     2.332306248182   116.42680220   176.08368980
 C      3   2   1     2.614997686902   119.80420955   190.32993536
 O     22   3   2     2.492059713464   125.13797475   170.98956058
 C     22   3   2     2.745998482754   118.91776607   349.49411426
 C     24  22   3     2.663469443974   123.05075183   185.07156655
 C     25  24  22     2.626093953478   120.21036357   178.72787594
 C     26  25  24     2.657716954085   120.09111201     0.40062097
 C     27  26  25     2.631791965742   120.63404527     0.08391486
 C     28  27  26     2.640916973394   118.87359661   359.77203417
 O      2   1   3     2.570556778945   116.21827667   180.38853500
 H      4   3   2     2.082305920320   105.31812502    23.71074894
 H      7   6   5     2.081655342590   108.46914366    67.63150062
 H      7   6   5     2.080067631491   108.36135293   310.73149389
 H      8   7   6     2.080348784606   109.72455498   179.38959695
 H      8   7   6     2.081019656781   110.50399160    59.75150091
 H      8   7   6     2.080889531448   111.00454343   299.18770803
 H     12  11  10     1.894459796804   112.90546908   340.34168333
 H     14  13  11     2.061070673155   118.74458642   358.86688612
 H     15  14  13     2.063671248348   119.97838561   180.23011687
 H     16  15  14     2.064519652331   119.92696445   179.89691468
 H     17  16  15     2.062384757315   121.91656095   179.48452478
 H     23  22   3     1.897135256784   112.91156014   342.92635593
 H     25  24  22     2.060973344265   118.72269357   359.03012239
 H     26  25  24     2.063722401550   119.97032777   180.29057997
 H     27  26  25     2.064636393057   119.94647890   179.88958657
 H     28  27  26     2.062405478659   121.92849337   179.52073033

---------------------
BASIS SET INFORMATION
---------------------
There are 3 groups of distinct atoms

 Group   1 Type O   : 7s4p1d contracted to 3s2p1d pattern {511/31/1}
 Group   2 Type C   : 7s4p1d contracted to 3s2p1d pattern {511/31/1}
 Group   3 Type H   : 4s1p contracted to 2s1p pattern {31/1}

Atom   0O    basis set group =>   1
Atom   1C    basis set group =>   2
Atom   2C    basis set group =>   2
Atom   3C    basis set group =>   2
Atom   4C    basis set group =>   2
Atom   5O    basis set group =>   1
Atom   6C    basis set group =>   2
Atom   7C    basis set group =>   2
Atom   8O    basis set group =>   1
Atom   9C    basis set group =>   2
Atom  10C    basis set group =>   2
Atom  11O    basis set group =>   1
Atom  12C    basis set group =>   2
Atom  13C    basis set group =>   2
Atom  14C    basis set group =>   2
Atom  15C    basis set group =>   2
Atom  16C    basis set group =>   2
Atom  17C    basis set group =>   2
Atom  18O    basis set group =>   1
Atom  19C    basis set group =>   2
Atom  20O    basis set group =>   1
Atom  21C    basis set group =>   2
Atom  22O    basis set group =>   1
Atom  23C    basis set group =>   2
Atom  24C    basis set group =>   2
Atom  25C    basis set group =>   2
Atom  26C    basis set group =>   2
Atom  27C    basis set group =>   2
Atom  28C    basis set group =>   2
Atom  29O    basis set group =>   1
Atom  30H    basis set group =>   3
Atom  31H    basis set group =>   3
Atom  32H    basis set group =>   3
Atom  33H    basis set group =>   3
Atom  34H    basis set group =>   3
Atom  35H    basis set group =>   3
Atom  36H    basis set group =>   3
Atom  37H    basis set group =>   3
Atom  38H    basis set group =>   3
Atom  39H    basis set group =>   3
Atom  40H    basis set group =>   3
Atom  41H    basis set group =>   3
Atom  42H    basis set group =>   3
Atom  43H    basis set group =>   3
Atom  44H    basis set group =>   3
Atom  45H    basis set group =>   3
---------------------------------
AUXILIARY/J BASIS SET INFORMATION
---------------------------------
There are 3 groups of distinct atoms

 Group   1 Type O   : 12s5p4d2f1g contracted to 6s4p3d1f1g pattern {711111/2111/211/2/1}
 Group   2 Type C   : 12s5p4d2f1g contracted to 6s4p3d1f1g pattern {711111/2111/211/2/1}
 Group   3 Type H   : 5s2p1d contracted to 3s1p1d pattern {311/2/1}

Atom   0O    basis set group =>   1
Atom   1C    basis set group =>   2
Atom   2C    basis set group =>   2
Atom   3C    basis set group =>   2
Atom   4C    basis set group =>   2
Atom   5O    basis set group =>   1
Atom   6C    basis set group =>   2
Atom   7C    basis set group =>   2
Atom   8O    basis set group =>   1
Atom   9C    basis set group =>   2
Atom  10C    basis set group =>   2
Atom  11O    basis set group =>   1
Atom  12C    basis set group =>   2
Atom  13C    basis set group =>   2
Atom  14C    basis set group =>   2
Atom  15C    basis set group =>   2
Atom  16C    basis set group =>   2
Atom  17C    basis set group =>   2
Atom  18O    basis set group =>   1
Atom  19C    basis set group =>   2
Atom  20O    basis set group =>   1
Atom  21C    basis set group =>   2
Atom  22O    basis set group =>   1
Atom  23C    basis set group =>   2
Atom  24C    basis set group =>   2
Atom  25C    basis set group =>   2
Atom  26C    basis set group =>   2
Atom  27C    basis set group =>   2
Atom  28C    basis set group =>   2
Atom  29O    basis set group =>   1
Atom  30H    basis set group =>   3
Atom  31H    basis set group =>   3
Atom  32H    basis set group =>   3
Atom  33H    basis set group =>   3
Atom  34H    basis set group =>   3
Atom  35H    basis set group =>   3
Atom  36H    basis set group =>   3
Atom  37H    basis set group =>   3
Atom  38H    basis set group =>   3
Atom  39H    basis set group =>   3
Atom  40H    basis set group =>   3
Atom  41H    basis set group =>   3
Atom  42H    basis set group =>   3
Atom  43H    basis set group =>   3
Atom  44H    basis set group =>   3
Atom  45H    basis set group =>   3


           ************************************************************
           *        Program running with 8 parallel MPI-processes     *
           *              working on a common directory               *
           ************************************************************
------------------------------------------------------------------------------
                             ORCA STARTUP CALCULATIONS
                           -- RI-GTO INTEGRALS CHOSEN --
------------------------------------------------------------------------------
------------------------------------------------------------------------------
                   ___                                                        
                  /   \      - P O W E R E D   B Y -                         
                 /     \                                                     
                 |  |  |   _    _      __       _____    __    __             
                 |  |  |  | |  | |    /  \     |  _  \  |  |  /  |          
                  \  \/   | |  | |   /    \    | | | |  |  | /  /          
                 / \  \   | |__| |  /  /\  \   | |_| |  |  |/  /          
                |  |  |   |  __  | /  /__\  \  |    /   |      \           
                |  |  |   | |  | | |   __   |  |    \   |  |\   \          
                \     /   | |  | | |  |  |  |  | |\  \  |  | \   \       
                 \___/    |_|  |_| |__|  |__|  |_| \__\ |__|  \__/        
                                                                              
                      - O R C A' S   B I G   F R I E N D -                    
                                      &                                       
                       - I N T E G R A L  F E E D E R -                       
                                                                              
 v1 FN, 2020, v2 2021, v3 2022-2024                                           
------------------------------------------------------------------------------


----------------------
SHARK INTEGRAL PACKAGE
----------------------

Number of atoms                             ...     46
Number of basis functions                   ...    500
Number of shells                            ...    228
Maximum angular momentum                    ...      2
Integral batch strategy                     ... SHARK/LIBINT Hybrid
RI-J (if used) integral strategy            ... SPLIT-RIJ (Revised 2003 algorithm where possible)
Printlevel                                  ...      1
Contraction scheme used                     ... SEGMENTED contraction
Prescreening option                         ... SCHWARTZ
   Thresh                                   ... 2.500e-11
   Tcut                                     ... 2.500e-12
   Tpresel                                  ... 2.500e-12 
Coulomb Range Separation                    ... NOT USED
Exchange Range Separation                   ... NOT USED
Multipole approximations                    ... NOT USED
Finite Nucleus Model                        ... NOT USED
CABS basis                                  ... NOT available
Auxiliary Coulomb fitting basis             ... AVAILABLE
   # of basis functions in Aux-J            ...   1646
   # of shells in Aux-J                     ...    530
   Maximum angular momentum in Aux-J        ...      4
Auxiliary J/K fitting basis                 ... NOT available
Auxiliary Correlation fitting basis         ... NOT available
Auxiliary 'external' fitting basis          ... NOT available

Checking pre-screening integrals            ... done (  0.0 sec) Dimension = 228
   => SHARK Basis and OBASIS are compatible. Storing Pre-screening
Shell pair information
Shell pair cut-off parameter TPreSel        ...   2.5e-12
Total number of shell pairs                 ...     26106
Shell pairs after pre-screening             ...     16997
Total number of primitive shell pairs       ...     97458
Primitive shell pairs kept                  ...     39000
          la=0 lb=0:   4929 shell pairs
          la=1 lb=0:   6294 shell pairs
          la=1 lb=1:   2038 shell pairs
          la=2 lb=0:   2119 shell pairs
          la=2 lb=1:   1390 shell pairs
          la=2 lb=2:    227 shell pairs

Checking whether 4 symmetric matrices of dimension 500 fit in memory
:Max Core in MB      =   3000.00
 MB in use           =     19.94
 MB left             =   2980.06
 MB needed           =      3.82
 Data fit in memory  = YES
Calculating RI/J V-Matrix + Cholesky decomp.... done (  0.1 sec)
Calculating Nuclear repulsion               ... done (  0.0 sec) ENN=   2950.506648001828 Eh

Diagonalization of the overlap matrix:
Smallest eigenvalue                        ... 2.464e-04
Time for diagonalization                   ...    0.014 sec
Threshold for overlap eigenvalues          ... 1.000e-07
Number of eigenvalues below threshold      ... 0
Time for construction of square roots      ...    0.011 sec
Total time needed                          ...    0.027 sec

-------------------
DFT GRID GENERATION
-------------------

General Integration Accuracy     IntAcc      ... 4.388
Radial Grid Type                 RadialGrid  ... OptM3 with GC (2021)
Angular Grid (max. ang.)         AngularGrid ... 4 (Lebedev-302)
Angular grid pruning method      GridPruning ... 4 (adaptive)
Weight generation scheme         WeightScheme... mBecke (2022)
Basis function cutoff            BFCut       ... 1.0000e-11
Integration weight cutoff        WCut        ... 1.0000e-14
Partially contracted basis set               ... off
Rotationally invariant grid construction     ... off
Angular grids for H and He will be reduced by one unit

Total number of grid points                  ...   230238
Total number of batches                      ...     3619
Average number of points per batch           ...       63
Average number of grid points per atom       ...     5005

--------------------
COSX GRID GENERATION
--------------------

GRIDX 1
-------
General Integration Accuracy     IntAcc      ... 3.816
Radial Grid Type                 RadialGrid  ... OptM3 with GC (2021)
Angular Grid (max. ang.)         AngularGrid ... 1 (Lebedev-50)
Angular grid pruning method      GridPruning ... 4 (adaptive)
Weight generation scheme         WeightScheme... mBecke (2022)
Basis function cutoff            BFCut       ... 1.0000e-11
Integration weight cutoff        WCut        ... 1.0000e-14
Partially contracted basis set               ... on
Rotationally invariant grid construction     ... off
Angular grids for H and He will be reduced by one unit

Total number of grid points                  ...    29194
Total number of batches                      ...      255
Average number of points per batch           ...      114
Average number of grid points per atom       ...      635
UseSFitting                                  ... on

GRIDX 2
-------
General Integration Accuracy     IntAcc      ... 4.020
Radial Grid Type                 RadialGrid  ... OptM3 with GC (2021)
Angular Grid (max. ang.)         AngularGrid ... 2 (Lebedev-110)
Angular grid pruning method      GridPruning ... 4 (adaptive)
Weight generation scheme         WeightScheme... mBecke (2022)
Basis function cutoff            BFCut       ... 1.0000e-11
Integration weight cutoff        WCut        ... 1.0000e-14
Partially contracted basis set               ... on
Rotationally invariant grid construction     ... off
Angular grids for H and He will be reduced by one unit

Total number of grid points                  ...    64363
Total number of batches                      ...      527
Average number of points per batch           ...      122
Average number of grid points per atom       ...     1399
UseSFitting                                  ... on

GRIDX 3
-------
General Integration Accuracy     IntAcc      ... 4.338
Radial Grid Type                 RadialGrid  ... OptM3 with GC (2021)
Angular Grid (max. ang.)         AngularGrid ... 3 (Lebedev-194)
Angular grid pruning method      GridPruning ... 4 (adaptive)
Weight generation scheme         WeightScheme... mBecke (2022)
Basis function cutoff            BFCut       ... 1.0000e-11
Integration weight cutoff        WCut        ... 1.0000e-14
Partially contracted basis set               ... on
Rotationally invariant grid construction     ... off
Angular grids for H and He will be reduced by one unit

Total number of grid points                  ...   140978
Total number of batches                      ...     1126
Average number of points per batch           ...      125
Average number of grid points per atom       ...     3065
UseSFitting                                  ... on
Grids setup in   1.6 sec
Initializing property integral containers    ... done (  0.1 sec)

SHARK setup successfully completed in   1.9 seconds

Maximum memory used throughout the entire STARTUP-calculation: 61.4 MB


           ************************************************************
           *        Program running with 8 parallel MPI-processes     *
           *              working on a common directory               *
           ************************************************************
-------------------------------------------------------------------------------
                                 ORCA GUESS
                   Start orbitals & Density for SCF / CASSCF
-------------------------------------------------------------------------------

------------
SCF SETTINGS
------------
Hamiltonian:
 Density Functional     Method          .... DFT(GTOs)
 Exchange Functional    Exchange        .... B88
   X-Alpha parameter    XAlpha          ....  0.666667
   Becke's b parameter  XBeta           ....  0.004200
 Correlation Functional Correlation     .... LYP
 LDA part of GGA corr.  LDAOpt          .... VWN-5
 Gradients option       PostSCFGGA      .... off
 Hybrid DFT is turned on
   Fraction HF Exchange ScalHFX         ....  0.200000
   Scaling of DF-GGA-X  ScalDFX         ....  0.720000
   Scaling of DF-GGA-C  ScalDFC         ....  0.810000
   Scaling of DF-LDA-C  ScalLDAC        ....  1.000000
   Perturbative correction              ....  0.000000
   NL short-range parameter             ....  4.800000
 RI-approximation to the Coulomb term is turned on
   Number of AuxJ basis functions       .... 1646
   RIJ-COSX (HFX calculated with COS-X)).... on


General Settings:
 Integral files         IntName         .... D:\Makaleler\coumarin-logp-working-source\dft\molecules\CMR_GOLD_016\input\CMR_GOLD_016_sp
 Hartree-Fock type      HFTyp           .... RHF
 Total Charge           Charge          ....    0
 Multiplicity           Mult            ....    1
 Number of Electrons    NEL             ....  212
 Basis Dimension        Dim             ....  500
 Nuclear Repulsion      ENuc            ....   2950.5066480018 Eh

Convergence Acceleration:
 AO-DIIS                CNVDIIS         .... on
   Start iteration      DIISMaxIt       ....    12
   Startup error        DIISStart       ....  0.200000
   # of expansion vecs  DIISMaxEq       ....     5
   Bias factor          DIISBfac        ....   1.050
   Max. coefficient     DIISMaxC        ....  10.000
 MO-DIIS                CNVKDIIS        .... off
 Trust-Rad. Augm. Hess. CNVTRAH         .... auto
   Auto Start mean grad. ratio tolernc. ....  1.125000
   Auto Start start iteration           ....    50
   Auto Start num. interpolation iter.  ....    10
   Max. Number of Micro iterations      ....    24
   Max. Number of Macro iterations      .... Maxiter - #DIIS iter
   Number of Davidson start vectors     ....     2
   Converg. threshold    (grad. norm)   ....   1.000e-05
   Grad. Scal. Fac. for Micro threshold ....   0.100
   Minimum threshold for Micro iter.    ....   1.000e-02
   NR start threshold (gradient norm)   ....   1.000e-04
   Initial trust radius                 ....   0.400
   Minimum AH scaling param. (alpha)    ....   1.000
   Maximum AH scaling param. (alpha)    .... 1000.000
   Quad. conv. algorithm                .... NR
   White noise on init. David. guess    .... on
   Maximum white noise                  ....   0.010
   Pseudo random numbers                .... off
   Inactive MOs                         .... canonical
   Orbital update algorithm             .... Taylor
   Preconditioner                       .... Diag
   Full preconditioner red. dimension   ....   250
 SOSCF                 CNVSOSCF           .... on
   Start iteration     SOSCFMaxIt         ....   150
   Startup grad/error  SOSCFStart         ....  0.003300
   Hessian update      SOSCFHessUp        .... L-BFGS
   Autom. constraints  SOSCFAutoConstrain .... off
 Level Shifting         CNVShift        .... on
   Level shift para.    LevelShift      ....    0.2500
   Turn off err/grad.   ShiftErr        ....    0.0010
 Zerner damping         CNVZerner       .... off
 Static damping         CNVDamp         .... on
   Fraction old density DampFac         ....    0.7000
   Max. Damping (<1)    DampMax         ....    0.9800
   Min. Damping (>=0)   DampMin         ....    0.0000
   Turn off err/grad.   DampErr         ....    0.1000

SCF Procedure:
 Maximum # iterations   MaxIter         ....   500
 SCF integral mode      SCFMode         .... Direct
   Integral package                     .... SHARK and LIBINT hybrid scheme
 Reset frequency        DirectResetFreq ....    20
 Integral Threshold     Thresh          ....  2.500e-11 Eh
 Primitive CutOff       TCut            ....  2.500e-12 Eh

Convergence Tolerance:
 Convergence Check Mode ConvCheckMode   .... Total+1el-Energy
 Convergence forced     ConvForced      .... 0
 Energy Change          TolE            ....  1.000e-08 Eh
 1-El. energy change                    ....  1.000e-05 Eh
 Orbital Gradient       TolG            ....  1.000e-05
 Orbital Rotation angle TolX            ....  1.000e-05
 DIIS Error             TolErr          ....  5.000e-07

------------------------------
INITIAL GUESS: MODEL POTENTIAL
------------------------------
Loading Hartree-Fock densities                     ... done
Calculating cut-offs                               ... done
Initializing the effective Hamiltonian             ... done
Setting up the integral package (SHARK)            ... done
Starting the Coulomb interaction                   ... done (   0.1 sec)
Making the grid                                    ... done (   0.3 sec)
Mapping shells                                     ... done
Starting the XC term evaluation                    ... done (   0.1 sec)
  promolecular density results
     # of electrons  =    211.990395865
     EX              =   -183.584470387
     EC              =     -7.400193060
     EX+EC           =   -190.984663447
Transforming the Hamiltonian                       ... done (   0.0 sec)
Diagonalizing the Hamiltonian                      ... done (   0.0 sec)
Back transforming the eigenvectors                 ... done (   0.0 sec)
Now organizing SCF variables                       ... done
                      ------------------
                      INITIAL GUESS DONE (   0.6 sec)
                      ------------------
             **** ENERGY FILE WAS UPDATED (D:\Makaleler\coumarin-logp-working-source\dft\molecules\CMR_GOLD_016\input\CMR_GOLD_016_sp.en.tmp) ****
Finished Guess after   0.7 sec
Maximum memory used throughout the entire GUESS-calculation: 27.4 MB


           ************************************************************
           *        Program running with 8 parallel MPI-processes     *
           *              working on a common directory               *
           ************************************************************

-------------------------------------------------------------------------------------------
                                      ORCA LEAN-SCF
                              memory conserving SCF solver
-------------------------------------------------------------------------------------------

--------------------
CPCM SOLVATION MODEL
--------------------
CPCM parameters:
  Epsilon                                         ...      80.1510
  Refrac                                          ...       1.3328
  Rsolv                                           ...       1.3000
  Surface type                                    ... GAUSSIAN VDW
  Discretization scheme                           ... Constant charge density
    Threshold for H atoms                         ...       5.0000 (charges/Ang^2)
    Threshold for non-H atoms                     ...       5.0000 (charges/Ang^2)
  Epsilon function type                           ...         CPCM
Solvent:                                          ... WATER
Radii:
  Scheme                                          ... Element-dependent radii
  Radius for O  used is    3.4469 Bohr (=   1.8240 Ang.)
  Radius for C  used is    3.8550 Bohr (=   2.0400 Ang.)
  Radius for H  used is    2.4944 Bohr (=   1.3200 Ang.)
Calculating surface                               ...        done! (  0.0s)
Cavity surface points                             ...         3926
Cavity Volume                                     ...    2950.4527
Cavity Surface-area                               ...    1438.5060
Calculating surface distance matrix               ...        done! (  0.1s)
Performing Cholesky decomposition & store         ...        done! (  0.3s)
Overall time for CPCM initialization              ...                 0.4s

----------------------------------------D-I-I-S--------------------------------------------
Iteration    Energy (Eh)           Delta-E    RMSDP     MaxDP     DIISErr   Damp  Time(sec)
-------------------------------------------------------------------------------------------
               ***  Starting incremental Fock matrix formation  ***
    1    -1447.3477234402166687     0.00e+00  7.04e-03  1.61e-01  2.63e-01  0.700   3.9
    2    -1447.6651265762470757    -3.17e-01  4.57e-03  1.07e-01  1.00e-01  0.700   3.3
                               ***Turning on AO-DIIS***
    3    -1447.7824590710938537    -1.17e-01  1.89e-03  1.88e-02  3.39e-02  0.700   3.0
    4    -1447.8566483026220340    -7.42e-02  3.43e-03  3.02e-02  1.77e-02  0.000   3.1
    5    -1448.0209147249174748    -1.64e-01  5.58e-04  9.37e-03  5.52e-03  0.000   2.9
                              *** Initializing SOSCF ***
---------------------------------------S-O-S-C-F--------------------------------------
Iteration    Energy (Eh)           Delta-E    RMSDP     MaxDP     MaxGrad    Time(sec)
--------------------------------------------------------------------------------------
    6    -1448.0218603996049751    -9.46e-04  1.79e-04  2.95e-03  1.70e-03     2.7
               *** Restarting incremental Fock matrix formation ***
    7    -1448.0218725512108904    -1.22e-05  1.41e-04  2.95e-03  4.18e-04     5.5
    8    -1448.0218609330745494     1.16e-05  7.41e-05  1.74e-03  9.18e-04     3.9
    9    -1448.0218851909262412    -2.43e-05  2.94e-05  3.90e-04  8.94e-05     3.5
   10    -1448.0218847567980447     4.34e-07  1.57e-05  2.94e-04  8.88e-05     3.2
   11    -1448.0218858163939331    -1.06e-06  6.13e-06  9.43e-05  1.73e-05     3.0
   12    -1448.0218858243883915    -7.99e-09  3.34e-06  4.19e-05  1.83e-05     2.8
                 **** Energy Check signals convergence ****

               *****************************************************
               *                     SUCCESS                       *
               *           SCF CONVERGED AFTER  12 CYCLES          *
               *****************************************************

Recomputing exchange energy using gridx3       ... done (    8.010 sec)
Old exchange energy                            :    -37.077015672 Eh
New exchange energy                            :    -37.077147481 Eh
Exchange energy change after final integration :     -0.000131809 Eh
Total energy after final integration           :  -1448.022017655 Eh
             **** ENERGY FILE WAS UPDATED (D:\Makaleler\coumarin-logp-working-source\dft\molecules\CMR_GOLD_016\input\CMR_GOLD_016_sp.en.tmp) ****

----------------
TOTAL SCF ENERGY
----------------

Total Energy       :      -1448.02201765497921 Eh          -39402.68229 eV

Components:
Nuclear Repulsion  :       2950.50664800182813 Eh           80287.36762 eV
Electronic Energy  :      -4398.50496065008792 Eh         -119689.40487 eV
One Electron Energy:      -7844.56144331324504 Eh         -213461.36904 eV
Two Electron Energy:       3446.05648266315711 Eh           93771.96417 eV
CPCM Dielectric    :         -0.02357319779843 Eh              -0.64146 eV

Virial components:
Potential Energy   :      -2883.10312381588028 Eh          -78453.22448 eV
Kinetic Energy     :       1435.08110616090107 Eh           39050.54219 eV
Virial Ratio       :          2.00901754711878

DFT components:
N(Alpha)           :      105.999909132113 electrons
N(Beta)            :      105.999909132113 electrons
N(Total)           :      211.999818264226 electrons
E(X)               :     -147.495762013975 Eh       
E(C)               :       -8.688496341829 Eh       
E(XC)              :     -156.184258355804 Eh       

CPCM Solvation Model Properties:
Surface-charge          :         -0.02585373154997
Corrected charge        :         -0.00000000000000
Outlying charge corr.   :          0.00003235420415 Eh               0.00088 eV
Free-energy (cav+disp)  :  This term is not implemented in the current solvation scheme

---------------
SCF CONVERGENCE
---------------

  Last Energy change         ...    7.9945e-09  Tolerance :   1.0000e-08
  Last MAX-Density change    ...    4.1927e-05  Tolerance :   1.0000e-07
  Last RMS-Density change    ...    3.3434e-06  Tolerance :   5.0000e-09
  Last DIIS Error            ...    1.7046e-03  Tolerance :   5.0000e-07
  Last Orbital Gradient      ...    1.8348e-05  Tolerance :   1.0000e-05
  Last Orbital Rotation      ...    3.1254e-05  Tolerance :   1.0000e-05


----------------
ORBITAL ENERGIES
----------------

  NO   OCC          E(Eh)            E(eV) 
   0   2.0000     -19.214548      -522.8544 
   1   2.0000     -19.212777      -522.8063 
   2   2.0000     -19.182807      -521.9907 
   3   2.0000     -19.177319      -521.8414 
   4   2.0000     -19.174822      -521.7734 
   5   2.0000     -19.136375      -520.7272 
   6   2.0000     -19.133730      -520.6553 
   7   2.0000     -19.127711      -520.4915 
   8   2.0000     -10.335370      -281.2397 
   9   2.0000     -10.333369      -281.1853 
  10   2.0000     -10.324112      -280.9334 
  11   2.0000     -10.289585      -279.9938 
  12   2.0000     -10.288736      -279.9708 
  13   2.0000     -10.274987      -279.5966 
  14   2.0000     -10.273689      -279.5613 
  15   2.0000     -10.241751      -278.6922 
  16   2.0000     -10.228011      -278.3183 
  17   2.0000     -10.216468      -278.0042 
  18   2.0000     -10.215033      -277.9652 
  19   2.0000     -10.210243      -277.8348 
  20   2.0000     -10.209235      -277.8074 
  21   2.0000     -10.207048      -277.7479 
  22   2.0000     -10.206722      -277.7390 
  23   2.0000     -10.206142      -277.7232 
  24   2.0000     -10.206097      -277.7220 
  25   2.0000     -10.203962      -277.6639 
  26   2.0000     -10.203231      -277.6440 
  27   2.0000     -10.199421      -277.5403 
  28   2.0000     -10.198749      -277.5221 
  29   2.0000     -10.180339      -277.0211 
  30   2.0000      -1.128629       -30.7116 
  31   2.0000      -1.126724       -30.6597 
  32   2.0000      -1.104376       -30.0516 
  33   2.0000      -1.073459       -29.2103 
  34   2.0000      -1.072090       -29.1731 
  35   2.0000      -1.031423       -28.0664 
  36   2.0000      -1.028379       -27.9836 
  37   2.0000      -1.012445       -27.5500 
  38   2.0000      -0.869873       -23.6704 
  39   2.0000      -0.868815       -23.6417 
  40   2.0000      -0.848535       -23.0898 
  41   2.0000      -0.812881       -22.1196 
  42   2.0000      -0.788689       -21.4613 
  43   2.0000      -0.766965       -20.8702 
  44   2.0000      -0.765527       -20.8310 
  45   2.0000      -0.764338       -20.7987 
  46   2.0000      -0.753345       -20.4996 
  47   2.0000      -0.720669       -19.6104 
  48   2.0000      -0.668117       -18.1804 
  49   2.0000      -0.665489       -18.1089 
  50   2.0000      -0.662157       -18.0182 
  51   2.0000      -0.650475       -17.7003 
  52   2.0000      -0.637028       -17.3344 
  53   2.0000      -0.623233       -16.9590 
  54   2.0000      -0.616899       -16.7867 
  55   2.0000      -0.596361       -16.2278 
  56   2.0000      -0.574201       -15.6248 
  57   2.0000      -0.569256       -15.4902 
  58   2.0000      -0.565327       -15.3833 
  59   2.0000      -0.557595       -15.1729 
  60   2.0000      -0.535124       -14.5615 
  61   2.0000      -0.530946       -14.4478 
  62   2.0000      -0.505449       -13.7540 
  63   2.0000      -0.501162       -13.6373 
  64   2.0000      -0.498796       -13.5729 
  65   2.0000      -0.493551       -13.4302 
  66   2.0000      -0.490348       -13.3431 
  67   2.0000      -0.486188       -13.2298 
  68   2.0000      -0.479300       -13.0424 
  69   2.0000      -0.469798       -12.7839 
  70   2.0000      -0.468103       -12.7377 
  71   2.0000      -0.462647       -12.5893 
  72   2.0000      -0.455488       -12.3944 
  73   2.0000      -0.452011       -12.2999 
  74   2.0000      -0.446211       -12.1420 
  75   2.0000      -0.444430       -12.0936 
  76   2.0000      -0.441203       -12.0057 
  77   2.0000      -0.430656       -11.7187 
  78   2.0000      -0.424220       -11.5436 
  79   2.0000      -0.412610       -11.2277 
  80   2.0000      -0.406179       -11.0527 
  81   2.0000      -0.403472       -10.9790 
  82   2.0000      -0.402274       -10.9464 
  83   2.0000      -0.396389       -10.7863 
  84   2.0000      -0.390291       -10.6203 
  85   2.0000      -0.388756       -10.5786 
  86   2.0000      -0.387797       -10.5525 
  87   2.0000      -0.382978       -10.4214 
  88   2.0000      -0.368385       -10.0243 
  89   2.0000      -0.364305        -9.9132 
  90   2.0000      -0.358591        -9.7578 
  91   2.0000      -0.357088        -9.7169 
  92   2.0000      -0.353646        -9.6232 
  93   2.0000      -0.350168        -9.5286 
  94   2.0000      -0.348040        -9.4706 
  95   2.0000      -0.345514        -9.4019 
  96   2.0000      -0.310888        -8.4597 
  97   2.0000      -0.307465        -8.3666 
  98   2.0000      -0.304216        -8.2781 
  99   2.0000      -0.293756        -7.9935 
 100   2.0000      -0.287953        -7.8356 
 101   2.0000      -0.285562        -7.7705 
 102   2.0000      -0.260034        -7.0759 
 103   2.0000      -0.257710        -7.0126 
 104   2.0000      -0.252187        -6.8624 
 105   2.0000      -0.233055        -6.3417 
 106   0.0000      -0.067709        -1.8424 
 107   0.0000      -0.066244        -1.8026 
 108   0.0000      -0.023167        -0.6304 
 109   0.0000      -0.020494        -0.5577 
 110   0.0000      -0.005531        -0.1505 
 111   0.0000      -0.001069        -0.0291 
 112   0.0000       0.005424         0.1476 
 113   0.0000       0.062042         1.6883 
 114   0.0000       0.068137         1.8541 
 115   0.0000       0.072409         1.9704 
 116   0.0000       0.073727         2.0062 
*Only the first 10 virtual orbitals were printed.

                    ********************************
                    * MULLIKEN POPULATION ANALYSIS *
                    ********************************

-----------------------
MULLIKEN ATOMIC CHARGES
-----------------------
   0 O :   -0.317274
   1 C :    0.264290
   2 C :   -0.189117
   3 C :    0.027914
   4 C :    0.170196
   5 O :   -0.295044
   6 C :    0.178179
   7 C :   -0.015839
   8 O :   -0.258985
   9 C :   -0.179992
  10 C :    0.202107
  11 O :   -0.188612
  12 C :    0.004684
  13 C :   -0.028841
  14 C :    0.024567
  15 C :    0.023700
  16 C :   -0.032635
  17 C :    0.174174
  18 O :   -0.218444
  19 C :    0.265188
  20 O :   -0.321690
  21 C :    0.215719
  22 O :   -0.188076
  23 C :    0.000825
  24 C :   -0.029867
  25 C :    0.024133
  26 C :    0.023050
  27 C :   -0.033302
  28 C :    0.176300
  29 O :   -0.220135
  30 H :    0.044475
  31 H :    0.033448
  32 H :    0.030519
  33 H :    0.033228
  34 H :    0.029627
  35 H :    0.031086
  36 H :    0.215345
  37 H :    0.007559
  38 H :    0.015753
  39 H :    0.023750
  40 H :    0.009097
  41 H :    0.214991
  42 H :    0.007871
  43 H :    0.014945
  44 H :    0.023006
  45 H :    0.008127
Sum of atomic charges:   -0.0000000

--------------------------------
MULLIKEN REDUCED ORBITAL CHARGES
--------------------------------
  0 O s       :     3.734504  s :     3.734504
      pz      :     1.632334  p :     4.567253
      px      :     1.431740
      py      :     1.503179
      dz2     :     0.002334  d :     0.015516
      dxz     :     0.004937
      dyz     :     0.002036
      dx2y2   :     0.002867
      dxy     :     0.003343

  1 C s       :     3.019891  s :     3.019891
      pz      :     0.966443  p :     2.588434
      px      :     0.761780
      py      :     0.860211
      dz2     :     0.027378  d :     0.127385
      dxz     :     0.034700
      dyz     :     0.014566
      dx2y2   :     0.027374
      dxy     :     0.023367

  2 C s       :     3.128777  s :     3.128777
      pz      :     0.920988  p :     3.024606
      px      :     0.956481
      py      :     1.147136
      dz2     :     0.008651  d :     0.035734
      dxz     :     0.009869
      dyz     :     0.004392
      dx2y2   :     0.006777
      dxy     :     0.006044

  3 C s       :     3.004650  s :     3.004650
      pz      :     1.002853  p :     2.925929
      px      :     0.964079
      py      :     0.958998
      dz2     :     0.004625  d :     0.041507
      dxz     :     0.009615
      dyz     :     0.008591
      dx2y2   :     0.010545
      dxy     :     0.008131

  4 C s       :     3.061549  s :     3.061549
      pz      :     0.859426  p :     2.633894
      px      :     0.872666
      py      :     0.901803
      dz2     :     0.019645  d :     0.134361
      dxz     :     0.021167
      dyz     :     0.021571
      dx2y2   :     0.030142
      dxy     :     0.041836

  5 O s       :     3.739118  s :     3.739118
      pz      :     1.673599  p :     4.539684
      px      :     1.595772
      py      :     1.270312
      dz2     :     0.002257  d :     0.016242
      dxz     :     0.002238
      dyz     :     0.003556
      dx2y2   :     0.003110
      dxy     :     0.005081

  6 C s       :     3.015339  s :     3.015339
      pz      :     0.969132  p :     2.748826
      px      :     1.030042
      py      :     0.749652
      dz2     :     0.011589  d :     0.057657
      dxz     :     0.006189
      dyz     :     0.012961
      dx2y2   :     0.014780
      dxy     :     0.012137

  7 C s       :     2.998329  s :     2.998329
      pz      :     1.018151  p :     2.990007
      px      :     0.973987
      py      :     0.997869
      dz2     :     0.007225  d :     0.027504
      dxz     :     0.004161
      dyz     :     0.004251
      dx2y2   :     0.005337
      dxy     :     0.006528

  8 O s       :     3.718705  s :     3.718705
      pz      :     1.405880  p :     4.522360
      px      :     1.386449
      py      :     1.730032
      dz2     :     0.003483  d :     0.017919
      dxz     :     0.005930
      dyz     :     0.001285
      dx2y2   :     0.004177
      dxy     :     0.003043

  9 C s       :     3.142653  s :     3.142653
      pz      :     0.915909  p :     3.000951
      px      :     1.103649
      py      :     0.981392
      dz2     :     0.009997  d :     0.036389
      dxz     :     0.005194
      dyz     :     0.008925
      dx2y2   :     0.005910
      dxy     :     0.006363

 10 C s       :     3.050578  s :     3.050578
      pz      :     0.800813  p :     2.664648
      px      :     0.897870
      py      :     0.965965
      dz2     :     0.023851  d :     0.082667
      dxz     :     0.019237
      dyz     :     0.025105
      dx2y2   :     0.008192
      dxy     :     0.006282

 11 O s       :     3.664598  s :     3.664598
      pz      :     1.233852  p :     4.510313
      px      :     1.613727
      py      :     1.662734
      dz2     :     0.004386  d :     0.013701
      dxz     :     0.003536
      dyz     :     0.002911
      dx2y2   :     0.000808
      dxy     :     0.002061

 12 C s       :     3.121065  s :     3.121065
      pz      :     0.920110  p :     2.835270
      px      :     1.002727
      py      :     0.912433
      dz2     :     0.009874  d :     0.038981
      dxz     :     0.007395
      dyz     :     0.009738
      dx2y2   :     0.006407
      dxy     :     0.005568

 13 C s       :     3.286844  s :     3.286844
      pz      :     0.809615  p :     2.707516
      px      :     0.953704
      py      :     0.944197
      dz2     :     0.009215  d :     0.034481
      dxz     :     0.004974
      dyz     :     0.007961
      dx2y2   :     0.006399
      dxy     :     0.005931

 14 C s       :     3.176575  s :     3.176575
      pz      :     0.923018  p :     2.764496
      px      :     0.942060
      py      :     0.899418
      dz2     :     0.009799  d :     0.034363
      dxz     :     0.007131
      dyz     :     0.009694
      dx2y2   :     0.003297
      dxy     :     0.004443

 15 C s       :     3.181056  s :     3.181056
      pz      :     0.913470  p :     2.760122
      px      :     0.936448
      py      :     0.910204
      dz2     :     0.008724  d :     0.035122
      dxz     :     0.007158
      dyz     :     0.010290
      dx2y2   :     0.004529
      dxy     :     0.004420

 16 C s       :     3.284503  s :     3.284503
      pz      :     0.798257  p :     2.715356
      px      :     0.967594
      py      :     0.949505
      dz2     :     0.007244  d :     0.032775
      dxz     :     0.005801
      dyz     :     0.008804
      dx2y2   :     0.005895
      dxy     :     0.005032

 17 C s       :     3.005742  s :     3.005742
      pz      :     1.000548  p :     2.748324
      px      :     0.903920
      py      :     0.843856
      dz2     :     0.015256  d :     0.071759
      dxz     :     0.012869
      dyz     :     0.017412
      dx2y2   :     0.012856
      dxy     :     0.013366

 18 O s       :     3.704239  s :     3.704239
      pz      :     1.628681  p :     4.497305
      px      :     1.534021
      py      :     1.334602
      dz2     :     0.002253  d :     0.016900
      dxz     :     0.003540
      dyz     :     0.005496
      dx2y2   :     0.002953
      dxy     :     0.002658

 19 C s       :     3.027229  s :     3.027229
      pz      :     0.967800  p :     2.579705
      px      :     0.830828
      py      :     0.781077
      dz2     :     0.026617  d :     0.127878
      dxz     :     0.024249
      dyz     :     0.029457
      dx2y2   :     0.026814
      dxy     :     0.020741

 20 O s       :     3.739130  s :     3.739130
      pz      :     1.670540  p :     4.567091
      px      :     1.422590
      py      :     1.473961
      dz2     :     0.002140  d :     0.015469
      dxz     :     0.003093
      dyz     :     0.003534
      dx2y2   :     0.003336
      dxy     :     0.003367

 21 C s       :     3.061133  s :     3.061133
      pz      :     0.797152  p :     2.640040
      px      :     0.989127
      py      :     0.853762
      dz2     :     0.024483  d :     0.083108
      dxz     :     0.025145
      dyz     :     0.018253
      dx2y2   :     0.006682
      dxy     :     0.008545

 22 O s       :     3.665879  s :     3.665879
      pz      :     1.264572  p :     4.508341
      px      :     1.543010
      py      :     1.700759
      dz2     :     0.004579  d :     0.013857
      dxz     :     0.003129
      dyz     :     0.003108
      dx2y2   :     0.001930
      dxy     :     0.001111

 23 C s       :     3.123096  s :     3.123096
      pz      :     0.924081  p :     2.837146
      px      :     0.860559
      py      :     1.052506
      dz2     :     0.010064  d :     0.038933
      dxz     :     0.010491
      dyz     :     0.005725
      dx2y2   :     0.006670
      dxy     :     0.005983

 24 C s       :     3.284778  s :     3.284778
      pz      :     0.823446  p :     2.710603
      px      :     0.939475
      py      :     0.947683
      dz2     :     0.008344  d :     0.034485
      dxz     :     0.010197
      dyz     :     0.003099
      dx2y2   :     0.005864
      dxy     :     0.006981

 25 C s       :     3.176502  s :     3.176502
      pz      :     0.920354  p :     2.764993
      px      :     0.866889
      py      :     0.977750
      dz2     :     0.009113  d :     0.034371
      dxz     :     0.011252
      dyz     :     0.005139
      dx2y2   :     0.004699
      dxy     :     0.004167

 26 C s       :     3.180919  s :     3.180919
      pz      :     0.921192  p :     2.760895
      px      :     0.891423
      py      :     0.948280
      dz2     :     0.008611  d :     0.035135
      dxz     :     0.011817
      dyz     :     0.005228
      dx2y2   :     0.005149
      dxy     :     0.004331

 27 C s       :     3.284598  s :     3.284598
      pz      :     0.801240  p :     2.715932
      px      :     0.927862
      py      :     0.986831
      dz2     :     0.007163  d :     0.032771
      dxz     :     0.010520
      dyz     :     0.003361
      dx2y2   :     0.005631
      dxy     :     0.006096

 28 C s       :     3.005057  s :     3.005057
      pz      :     0.988038  p :     2.746663
      px      :     0.786052
      py      :     0.972573
      dz2     :     0.014814  d :     0.071980
      dxz     :     0.021957
      dyz     :     0.008657
      dx2y2   :     0.012633
      dxy     :     0.013920

 29 O s       :     3.703612  s :     3.703612
      pz      :     1.637761  p :     4.499611
      px      :     1.179143
      py      :     1.682707
      dz2     :     0.002191  d :     0.016912
      dxz     :     0.006621
      dyz     :     0.002176
      dx2y2   :     0.002579
      dxy     :     0.003345

 30 H s       :     0.930623  s :     0.930623
      pz      :     0.012181  p :     0.024902
      px      :     0.007818
      py      :     0.004903

 31 H s       :     0.945034  s :     0.945034
      pz      :     0.005760  p :     0.021518
      px      :     0.010857
      py      :     0.004902

 32 H s       :     0.947804  s :     0.947804
      pz      :     0.014283  p :     0.021677
      px      :     0.004728
      py      :     0.002665

 33 H s       :     0.943400  s :     0.943400
      pz      :     0.006704  p :     0.023372
      px      :     0.004255
      py      :     0.012413

 34 H s       :     0.947244  s :     0.947244
      pz      :     0.006294  p :     0.023129
      px      :     0.010213
      py      :     0.006622

 35 H s       :     0.945734  s :     0.945734
      pz      :     0.013818  p :     0.023180
      px      :     0.004438
      py      :     0.004924

 36 H s       :     0.708337  s :     0.708337
      pz      :     0.023639  p :     0.076317
      px      :     0.028518
      py      :     0.024160

 37 H s       :     0.969079  s :     0.969079
      pz      :     0.015354  p :     0.023362
      px      :     0.004343
      py      :     0.003664

 38 H s       :     0.961210  s :     0.961210
      pz      :     0.004855  p :     0.023038
      px      :     0.007739
      py      :     0.010443

 39 H s       :     0.953320  s :     0.953320
      pz      :     0.007762  p :     0.022930
      px      :     0.005563
      py      :     0.009604

 40 H s       :     0.967680  s :     0.967680
      pz      :     0.015213  p :     0.023222
      px      :     0.004479
      py      :     0.003531

 41 H s       :     0.706862  s :     0.706862
      pz      :     0.022935  p :     0.078147
      px      :     0.039212
      py      :     0.016000

 42 H s       :     0.968746  s :     0.968746
      pz      :     0.014850  p :     0.023384
      px      :     0.003438
      py      :     0.005096

 43 H s       :     0.962024  s :     0.962024
      pz      :     0.005519  p :     0.023031
      px      :     0.012511
      py      :     0.005001

 44 H s       :     0.954069  s :     0.954069
      pz      :     0.006673  p :     0.022925
      px      :     0.012183
      py      :     0.004069

 45 H s       :     0.968663  s :     0.968663
      pz      :     0.014751  p :     0.023210
      px      :     0.003129
      py      :     0.005330



                     *******************************
                     * LOEWDIN POPULATION ANALYSIS *
                     *******************************

----------------------
LOEWDIN ATOMIC CHARGES
----------------------
   0 O :   -0.232171
   1 C :    0.109531
   2 C :   -0.145149
   3 C :   -0.042039
   4 C :    0.089693
   5 O :   -0.080793
   6 C :    0.099626
   7 C :   -0.062842
   8 O :   -0.213744
   9 C :   -0.138142
  10 C :    0.108086
  11 O :   -0.022249
  12 C :   -0.069438
  13 C :    0.005997
  14 C :   -0.026115
  15 C :    0.003196
  16 C :   -0.034487
  17 C :    0.074137
  18 O :   -0.019014
  19 C :    0.111220
  20 O :   -0.222688
  21 C :    0.106723
  22 O :   -0.018131
  23 C :   -0.069481
  24 C :    0.004964
  25 C :   -0.027293
  26 C :    0.002159
  27 C :   -0.035524
  28 C :    0.072692
  29 O :   -0.021232
  30 H :    0.066637
  31 H :    0.025901
  32 H :    0.023828
  33 H :    0.039647
  34 H :    0.030096
  35 H :    0.031275
  36 H :    0.067883
  37 H :    0.041175
  38 H :    0.041914
  39 H :    0.044637
  40 H :    0.047907
  41 H :    0.057868
  42 H :    0.040574
  43 H :    0.041497
  44 H :    0.044247
  45 H :    0.047422

-------------------------------
LOEWDIN REDUCED ORBITAL CHARGES
-------------------------------
  0 O s       :     3.529290  s :     3.529290
      pz      :     1.652472  p :     4.675238
      px      :     1.511184
      py      :     1.511582
      dz2     :     0.003270  d :     0.027643
      dxz     :     0.009884
      dyz     :     0.003200
      dx2y2   :     0.005307
      dxy     :     0.005982

  1 C s       :     2.835929  s :     2.835929
      pz      :     1.003989  p :     2.768401
      px      :     0.884814
      py      :     0.879599
      dz2     :     0.063476  d :     0.286139
      dxz     :     0.081093
      dyz     :     0.030849
      dx2y2   :     0.062286
      dxy     :     0.048435

  2 C s       :     2.861122  s :     2.861122
      pz      :     1.039245  p :     3.185000
      px      :     1.029679
      py      :     1.116077
      dz2     :     0.026123  d :     0.099027
      dxz     :     0.029836
      dyz     :     0.011393
      dx2y2   :     0.018461
      dxy     :     0.013213

  3 C s       :     2.832867  s :     2.832867
      pz      :     1.057975  p :     3.103742
      px      :     1.028674
      py      :     1.017093
      dz2     :     0.010674  d :     0.105430
      dxz     :     0.024266
      dyz     :     0.023845
      dx2y2   :     0.028242
      dxy     :     0.018403

  4 C s       :     2.846280  s :     2.846280
      pz      :     0.873483  p :     2.764624
      px      :     0.946731
      py      :     0.944410
      dz2     :     0.039510  d :     0.299403
      dxz     :     0.049132
      dyz     :     0.047225
      dx2y2   :     0.067410
      dxy     :     0.096125

  5 O s       :     3.447619  s :     3.447619
      pz      :     1.667380  p :     4.601503
      px      :     1.619749
      py      :     1.314373
      dz2     :     0.004214  d :     0.031672
      dxz     :     0.003043
      dyz     :     0.006606
      dx2y2   :     0.006537
      dxy     :     0.011272

  6 C s       :     2.851852  s :     2.851852
      pz      :     1.026464  p :     2.918388
      px      :     1.069855
      py      :     0.822069
      dz2     :     0.029187  d :     0.130134
      dxz     :     0.012807
      dyz     :     0.027524
      dx2y2   :     0.030591
      dxy     :     0.030024

  7 C s       :     2.843266  s :     2.843266
      pz      :     1.067616  p :     3.149183
      px      :     1.029356
      py      :     1.052210
      dz2     :     0.018771  d :     0.070393
      dxz     :     0.009798
      dyz     :     0.010379
      dx2y2   :     0.013629
      dxy     :     0.017815

  8 O s       :     3.540432  s :     3.540432
      pz      :     1.444501  p :     4.642499
      px      :     1.474583
      py      :     1.723415
      dz2     :     0.004311  d :     0.030814
      dxz     :     0.011854
      dyz     :     0.002093
      dx2y2   :     0.007770
      dxy     :     0.004786

  9 C s       :     2.859844  s :     2.859844
      pz      :     1.031240  p :     3.178053
      px      :     1.098308
      py      :     1.048505
      dz2     :     0.030067  d :     0.100244
      dxz     :     0.014468
      dyz     :     0.026153
      dx2y2   :     0.013040
      dxy     :     0.016516

 10 C s       :     2.836691  s :     2.836691
      pz      :     0.915821  p :     2.866020
      px      :     0.923268
      py      :     1.026931
      dz2     :     0.054834  d :     0.189204
      dxz     :     0.041349
      dyz     :     0.060377
      dx2y2   :     0.017610
      dxy     :     0.015033

 11 O s       :     3.402011  s :     3.402011
      pz      :     1.305316  p :     4.593997
      px      :     1.624612
      py      :     1.664069
      dz2     :     0.009935  d :     0.026242
      dxz     :     0.006757
      dyz     :     0.005774
      dx2y2   :     0.000499
      dxy     :     0.003277

 12 C s       :     2.844432  s :     2.844432
      pz      :     1.043694  p :     3.119312
      px      :     1.040135
      py      :     1.035482
      dz2     :     0.029906  d :     0.105694
      dxz     :     0.019019
      dyz     :     0.028433
      dx2y2   :     0.013647
      dxy     :     0.014688

 13 C s       :     2.861255  s :     2.861255
      pz      :     1.051676  p :     3.043088
      px      :     0.976073
      py      :     1.015339
      dz2     :     0.024776  d :     0.089660
      dxz     :     0.012069
      dyz     :     0.022105
      dx2y2   :     0.014659
      dxy     :     0.016052

 14 C s       :     2.862406  s :     2.862406
      pz      :     1.055292  p :     3.074379
      px      :     0.993900
      py      :     1.025187
      dz2     :     0.028066  d :     0.089330
      dxz     :     0.017508
      dyz     :     0.026428
      dx2y2   :     0.006537
      dxy     :     0.010790

 15 C s       :     2.865703  s :     2.865703
      pz      :     1.056201  p :     3.041243
      px      :     0.970230
      py      :     1.014811
      dz2     :     0.024481  d :     0.089857
      dxz     :     0.017743
      dyz     :     0.027000
      dx2y2   :     0.009385
      dxy     :     0.011249

 16 C s       :     2.863809  s :     2.863809
      pz      :     1.039629  p :     3.083875
      px      :     1.011601
      py      :     1.032644
      dz2     :     0.020275  d :     0.086804
      dxz     :     0.014201
      dyz     :     0.024621
      dx2y2   :     0.013432
      dxy     :     0.014275

 17 C s       :     2.836507  s :     2.836507
      pz      :     1.059326  p :     2.921678
      px      :     0.938646
      py      :     0.923706
      dz2     :     0.038690  d :     0.167677
      dxz     :     0.030338
      dyz     :     0.043277
      dx2y2   :     0.025924
      dxy     :     0.029448

 18 O s       :     3.420044  s :     3.420044
      pz      :     1.647115  p :     4.565836
      px      :     1.542082
      py      :     1.376639
      dz2     :     0.003770  d :     0.033134
      dxz     :     0.005730
      dyz     :     0.010838
      dx2y2   :     0.006065
      dxy     :     0.006732

 19 C s       :     2.836288  s :     2.836288
[...]
      pz      :     0.044612  p :     0.069954
      px      :     0.013594
      py      :     0.011748

 38 H s       :     0.890234  s :     0.890234
      pz      :     0.015109  p :     0.067852
      px      :     0.022800
      py      :     0.029943

 39 H s       :     0.887791  s :     0.887791
      pz      :     0.023185  p :     0.067572
      px      :     0.016764
      py      :     0.027623

 40 H s       :     0.882598  s :     0.882598
      pz      :     0.043659  p :     0.069496
      px      :     0.014284
      py      :     0.011553

 41 H s       :     0.716744  s :     0.716744
      pz      :     0.058819  p :     0.225388
      px      :     0.119239
      py      :     0.047331

 42 H s       :     0.889362  s :     0.889362
      pz      :     0.043165  p :     0.070065
      px      :     0.011121
      py      :     0.015779

 43 H s       :     0.890663  s :     0.890663
      pz      :     0.016922  p :     0.067840
      px      :     0.035414
      py      :     0.015504

 44 H s       :     0.888206  s :     0.888206
      pz      :     0.020187  p :     0.067547
      px      :     0.034538
      py      :     0.012822

 45 H s       :     0.883093  s :     0.883093
      pz      :     0.042395  p :     0.069486
      px      :     0.010316
      py      :     0.016775



                      *****************************
                      * MAYER POPULATION ANALYSIS *
                      *****************************

  NA   - Mulliken gross atomic population
  ZA   - Total nuclear charge
  QA   - Mulliken gross atomic charge
  VA   - Mayer's total valence
  BVA  - Mayer's bonded valence
  FA   - Mayer's free valence

  ATOM       NA         ZA         QA         VA         BVA        FA
  0 O      8.3173     8.0000    -0.3173     2.2115     2.2115    -0.0000
  1 C      5.7357     6.0000     0.2643     4.2059     4.2059     0.0000
  2 C      6.1891     6.0000    -0.1891     3.7208     3.7208     0.0000
  3 C      5.9721     6.0000     0.0279     3.7899     3.7899    -0.0000
  4 C      5.8298     6.0000     0.1702     4.3760     4.3760    -0.0000
  5 O      8.2950     8.0000    -0.2950     2.2233     2.2233     0.0000
  6 C      5.8218     6.0000     0.1782     3.9873     3.9873     0.0000
  7 C      6.0158     6.0000    -0.0158     4.0193     4.0193     0.0000
  8 O      8.2590     8.0000    -0.2590     2.2537     2.2537    -0.0000
  9 C      6.1800     6.0000    -0.1800     3.7369     3.7369     0.0000
 10 C      5.7979     6.0000     0.2021     4.0379     4.0379    -0.0000
 11 O      8.1886     8.0000    -0.1886     2.3576     2.3576     0.0000
 12 C      5.9953     6.0000     0.0047     3.7369     3.7369    -0.0000
 13 C      6.0288     6.0000    -0.0288     3.8177     3.8177    -0.0000
 14 C      5.9754     6.0000     0.0246     3.7718     3.7718     0.0000
 15 C      5.9763     6.0000     0.0237     3.7927     3.7927    -0.0000
 16 C      6.0326     6.0000    -0.0326     3.8358     3.8358     0.0000
 17 C      5.8258     6.0000     0.1742     3.8932     3.8932    -0.0000
 18 O      8.2184     8.0000    -0.2184     2.2960     2.2960     0.0000
 19 C      5.7348     6.0000     0.2652     4.2003     4.2003     0.0000
 20 O      8.3217     8.0000    -0.3217     2.1967     2.1967    -0.0000
 21 C      5.7843     6.0000     0.2157     4.0245     4.0245    -0.0000
 22 O      8.1881     8.0000    -0.1881     2.3655     2.3655    -0.0000
 23 C      5.9992     6.0000     0.0008     3.7406     3.7406    -0.0000
 24 C      6.0299     6.0000    -0.0299     3.8207     3.8207     0.0000
 25 C      5.9759     6.0000     0.0241     3.7703     3.7703    -0.0000
 26 C      5.9770     6.0000     0.0230     3.7921     3.7921    -0.0000
 27 C      6.0333     6.0000    -0.0333     3.8341     3.8341    -0.0000
 28 C      5.8237     6.0000     0.1763     3.8964     3.8964    -0.0000
 29 O      8.2201     8.0000    -0.2201     2.2916     2.2916    -0.0000
 30 H      0.9555     1.0000     0.0445     1.0250     1.0250     0.0000
 31 H      0.9666     1.0000     0.0334     0.9866     0.9866     0.0000
 32 H      0.9695     1.0000     0.0305     0.9947     0.9947     0.0000
 33 H      0.9668     1.0000     0.0332     0.9895     0.9895     0.0000
 34 H      0.9704     1.0000     0.0296     0.9984     0.9984    -0.0000
 35 H      0.9689     1.0000     0.0311     0.9905     0.9905     0.0000
 36 H      0.7847     1.0000     0.2153     1.0765     1.0765    -0.0000
 37 H      0.9924     1.0000     0.0076     1.0015     1.0015    -0.0000
 38 H      0.9842     1.0000     0.0158     0.9810     0.9810     0.0000
 39 H      0.9763     1.0000     0.0237     0.9803     0.9803    -0.0000
 40 H      0.9909     1.0000     0.0091     0.9943     0.9943     0.0000
 41 H      0.7850     1.0000     0.2150     1.0826     1.0826     0.0000
 42 H      0.9921     1.0000     0.0079     1.0017     1.0017     0.0000
 43 H      0.9851     1.0000     0.0149     0.9810     0.9810    -0.0000
 44 H      0.9770     1.0000     0.0230     0.9803     0.9803    -0.0000
 45 H      0.9919     1.0000     0.0081     0.9943     0.9943    -0.0000

  Mayer bond orders larger than 0.100000
B(  0-O ,  1-C ) :   1.8354 B(  0-O , 36-H ) :   0.1712 B(  1-C ,  2-C ) :   1.1331 
B(  1-C , 29-O ) :   1.1142 B(  2-C ,  3-C ) :   1.0033 B(  2-C , 21-C ) :   1.4215 
B(  3-C ,  4-C ) :   0.8995 B(  3-C ,  9-C ) :   0.9880 B(  3-C , 30-H ) :   0.8384 
B(  4-C ,  5-O ) :   1.2592 B(  4-C ,  8-O ) :   2.0683 B(  5-O ,  6-C ) :   0.8614 
B(  6-C ,  7-C ) :   1.1152 B(  6-C , 31-H ) :   0.9566 B(  6-C , 32-H ) :   0.9516 
B(  7-C , 33-H ) :   0.9579 B(  7-C , 34-H ) :   0.9677 B(  7-C , 35-H ) :   0.9665 
B(  9-C , 10-C ) :   1.4587 B(  9-C , 19-C ) :   1.1207 B( 10-C , 11-O ) :   1.3959 
B( 10-C , 12-C ) :   1.0860 B( 11-O , 36-H ) :   0.8473 B( 12-C , 13-C ) :   1.2973 
B( 12-C , 17-C ) :   1.3067 B( 13-C , 14-C ) :   1.3906 B( 13-C , 37-H ) :   0.9976 
B( 14-C , 15-C ) :   1.3237 B( 14-C , 38-H ) :   0.9909 B( 15-C , 16-C ) :   1.3785 
B( 15-C , 39-H ) :   0.9876 B( 16-C , 17-C ) :   1.3593 B( 16-C , 40-H ) :   0.9948 
B( 17-C , 18-O ) :   1.0688 B( 18-O , 19-C ) :   1.1202 B( 19-C , 20-O ) :   1.8059 
B( 20-O , 41-H ) :   0.1794 B( 21-C , 22-O ) :   1.4069 B( 21-C , 23-C ) :   1.0881 
B( 22-O , 41-H ) :   0.8415 B( 23-C , 24-C ) :   1.2996 B( 23-C , 28-C ) :   1.3098 
B( 24-C , 25-C ) :   1.3908 B( 24-C , 42-H ) :   0.9965 B( 25-C , 26-C ) :   1.3235 
B( 25-C , 43-H ) :   0.9910 B( 26-C , 27-C ) :   1.3787 B( 26-C , 44-H ) :   0.9876 
B( 27-C , 28-C ) :   1.3585 B( 27-C , 45-H ) :   0.9949 B( 28-C , 29-O ) :   1.0701 


-------
TIMINGS
-------

Total SCF time: 0 days 0 hours 0 min 52 sec 

Total time                  ....      52.110 sec
Sum of individual times     ....      49.542 sec  ( 95.1%)

SCF preparation             ....       0.585 sec  (  1.1%)
Fock matrix formation       ....      46.689 sec  ( 89.6%)
  Startup                   ....       0.042 sec  (  0.1% of F)
  Split-RI-J                ....       4.516 sec  (  9.7% of F)
  Chain of spheres X        ....      31.917 sec  ( 68.4% of F)
  XC integration            ....       5.491 sec  ( 11.8% of F)
    Basis function eval.    ....       1.576 sec  ( 28.7% of XC)
    Density eval.           ....       1.219 sec  ( 22.2% of XC)
    XC-Functional eval.     ....       0.117 sec  (  2.1% of XC)
    XC-Potential eval.      ....       1.226 sec  ( 22.3% of XC)
  CPCM terms                ....       6.751 sec  ( 14.5% of F)
Diagonalization             ....       0.000 sec  (  0.0%)
Density matrix formation    ....       0.400 sec  (  0.8%)
Total Energy calculation    ....       0.139 sec  (  0.3%)
Population analysis         ....       0.114 sec  (  0.2%)
Orbital Transformation      ....       0.171 sec  (  0.3%)
Orbital Orthonormalization  ....       0.000 sec  (  0.0%)
DIIS solution               ....       0.867 sec  (  1.7%)
SOSCF solution              ....       0.577 sec  (  1.1%)
Finished LeanSCF after  52.4 sec

Maximum memory used throughout the entire LEANSCF-calculation: 55.2 MB


-------------------------------------------------------------------------------
                          DFT DISPERSION CORRECTION                            
                                                                               
                              DFTD3 V3.1  Rev 1                                
                          USING Becke-Johnson damping                          
-------------------------------------------------------------------------------
The B3LYP functional is recognized
Active option DFTDOPT                   ...         4   

molecular C6(AA) [au] = 26329.943837 


            DFT-D V3
 parameters
 s6 scaling factor         :     1.0000 
 a1 scaling factor         :     0.3981 
 s8 scaling factor         :     1.9889 
 a2 scaling factor         :     4.4211 
 ad hoc parameters k1-k3   :    16.0000     1.3333    -4.0000 

 Edisp/kcal,au: -69.646734949045  -0.110989125102 
 E6   /kcal   : -32.650001880 
 E8   /kcal   : -36.996733069 
 % E8         :  53.120556327 

-------------------------   ----------------
Dispersion correction           -0.110989125
-------------------------   ----------------


-------------------------   --------------------
FINAL SINGLE POINT ENERGY     -1448.133006780082
-------------------------   --------------------



           ************************************************************
           *        Program running with 8 parallel MPI-processes     *
           *              working on a common directory               *
           ************************************************************

------------------------------------------------------------------------------
                              ORCA PROPERTY CALCULATIONS
------------------------------------------------------------------------------

GBWName                                 ... D:\Makaleler\coumarin-logp-working-source\dft\molecules\CMR_GOLD_016\input\CMR_GOLD_016_sp.gbw
Number of atoms                         ...     46
Number of basis functions               ...    500
Max core memory                         ...   3000 MB

Electric properties:
Dipole moment                           ... YES
Quadrupole moment                       ...  NO
Static polarizability (Dipole/Dipole)   ...  NO
Static polarizability (Dipole/Quad.)    ...  NO
Static polarizability (Quad./Quad.)     ...  NO
Static polarizability (Velocity)        ...  NO
Static hyperpolarizability              ...  NO

Atomic electric properties:
Dipole moment                           ...  NO
Quadrupole moment                       ...  NO
Static polarizability                   ...  NO

Choice of electric origin               ... Center of mass
Position of electric origin             ...    -0.262131    -0.382756     0.078653

General magnetic properties:
Magnetizability                         ...  NO

EPR properties:
g-Tensor (aka g-matrix)                 ...  NO
Zero-Field splitting spin-orbit         ...  NO
Zero-field splitting spin-spin          ...  NO
Hyperfine couplings                     ...  NO (   0 nuclei)
Quadrupole couplings                    ...  NO (   0 nuclei)
Contact density                         ...  NO (   0 nuclei)

NMR properties:
Chemical shifts                         ...  NO (   0 nuclei)
Spin-rotation constants                 ...  NO (   0 nuclei)
Spin-spin couplings                     ...  NO (   0 nuclei,    0 pairs)

Choice of magnetic origin               ... GIAO
Position of magnetic origin             ...     0.000000     0.000000     0.000000

Properties with geometric perturbations:
SCF Hessian                             ...  NO
IR spectrum                             ...  NO
VCD spectrum                            ...  NO
X-ray spectroscopy properties:
SCF XES/XAS/RIXS spectra                ...  NO

SCF SOC stabilization energy            ...  NO
Diagonal Born-Oppenheimer correction    ...  NO

-------------
DIPOLE MOMENT
-------------

Method             : SCF
Type of density    : Electron Density
Multiplicity       :   1
Irrep              :   0
Energy             : -1448.0220176549792086 Eh
Basis              : AO
                                X                 Y                 Z
Electronic contribution:     -4.169782858     -11.138150783       2.239226490
Nuclear contribution   :      5.420766417      10.717202173      -2.016409194
                        -----------------------------------------
Total Dipole Moment    :      1.250983559      -0.420948610       0.222817296
                        -----------------------------------------
Magnitude (a.u.)       :      1.338583260
Magnitude (Debye)      :      3.402408252



--------------------
Rotational spectrum 
--------------------
 
Rotational constants in cm-1:             0.008384             0.003593             0.003087 
Rotational constants in MHz :           251.331799           107.704638            92.532706 

Dipole components along the rotational axes: 
x,y,z [a.u.] :     0.787216     0.879161    -0.631801 
x,y,z [Debye]:     2.000944     2.234649    -1.605911 

 

Dipole moment calculation done in   0.0 sec 

Maximum memory used throughout the entire PROP-calculation: 28.6 MB

--------------------------------
SUGGESTED CITATIONS FOR THIS RUN
--------------------------------

Below you find a list of papers that are relevant to this ORCA run
We neither can nor want to force you to cite these papers, but we appreciate if you do
You receive ORCA, which is the product of decades of hard work by many enthusiastic individuals, for free
The only thing we kindly ask in return is that you cite our papers,
We deeply appreciate it, if you show your appreciation for ORCA by not just citing the generic ORCA reference.

Please note that relegating all ORCA citations to the supporting information does *not* help us.
SI sections are not indexed - citations you put there will not count into any citation statistics
But we need these citations in order to attract the funding resources that allow us to do what we are doing

Therefore, if you are a happy ORCA user, please consider citing a few of the papers listed below in the main body of your paper

In addition to the list printed below, the program has created the file D:\Makaleler\coumarin-logp-working-source\dft\molecules\CMR_GOLD_016\input\CMR_GOLD_016_sp.bibtex that contains the list in bibtex format
You can import this file easily into all common literature databanks and citation aid programs

It goes without saying that in many instances, there are alternative algorithms to achieve similar
results as the ones you have gotten from ORCA. It is, of course, also the case that in some instances
ORCA just re-implements algorithms worked out by others. We are fully aware of that and we are also
fully appreciative of our colleagues work. Hence this citation list should not be read as indicating
that the listed papers, which are focused on our own work, are the only ones worth citing. It simply
meant to make it easier for users to cite ORCA specific papers. It is not a substitute for doing your
own literature research and citing the relevant literature in a scientifically appropriate manner.

List of essential papers. We consider these as the minimum necessary citations

  1. Neese, F.
     Software update: the ORCA program system, version 6.0
     WIRES Comput. Molec. Sci. 2025 15(1), e70019
     doi.org/10.1002/wcms.70019

List of papers to cite with high priority. The work reported in these papers was absolutely
necessary for this run to complete.
Our perspective: the developers of density functionals and basis sets usually get cited in chemistry papers
Good! But without the algorithms to do something with them, the functionals or basis sets would not do anything.
Hence, in our opinion, the algorithm design and method developments papers are equally worthy of getting cited

  1. Neese, F.
     An improvement of the resolution of the identity approximation for the formation of the Coulomb matrix
     J. Comp. Chem. 2003 24(14), 1740-1747
     doi.org/10.1002/jcc.10318
  2. Neese, F.; Wennmohs, F.; Hansen, A.; Becker, U.
     Efficient, approximate and parallel Hartree-Fock and hybrid DFT calculations. A 'chain-of-spheres' algorithm for the Hartree-Fock exchange
     Chem. Phys. 2009 356(1-3), 98-109
     doi.org/10.1016/j.chemphys.2008.10.036
  3. Grimme, S.; Antony, J.; Ehrlich, S.; Krieg, H.
     A consistent and accurate ab initio parametrization of density functional dispersion correction (DFT-D) for the 94 elements H-Pu
     J. Chem. Phys. 2010 132 , 154104
     doi.org/10.1063/1.3382344
  4. Grimme, S.; Ehrlich, S.; Goerigk, L.
     Effect of the damping function in dispersion corrected density functional theory
     J. Comput. Chem. 2011 32(7), 1456-1465
     doi.org/10.1002/jcc.21759
  5. Garcia-Rates, M.; Neese, F.
     Effect of the Solute Cavity on the Solvation Energy and its Derivatives within the Framework of the Gaussian Charge Scheme
     J. Comput. Chem. 2020 41 , 922-939
     doi.org/10.1002/jcc.26139
  6. Helmich-Paris, B.; de Souza, B.; Neese, F.; Izsák, R.
     An improved chain of spheres for exchange algorithm
     J. Chem. Phys. 2021 155(10), 104109
     doi.org/10.1063/5.0058766
  7. Neese, F.
     The SHARK Integral Generation and Digestion System
     J. Comp. Chem. 2022 44(3), 381
     doi.org/10.1002/jcc.26942

List of suggested additional citations. These are papers that are important in the 'surrounding' of 
of this run, or papers that preceded the highly important papers. If you like your results we are grateful for a citation.

  1. Izsak, R.; Neese, F.
     An overlap fitted chain of spheres exchange method
     J. Chem. Phys. 2011 135 , 144105
     doi.org/10.1063/1.3646921
  2. Izsak, R.; Hansen, A.; Neese, F.
     The resolution of identity and chain of spheres approximations for the LPNO-CCSD singles Fock term
     Molec. Phys. 2012 110 , 2413-2417
     doi.org/10.1080/00268976.2012.687466
  3. Neese, F.
     The ORCA program system
     WIRES Comput. Molec. Sci. 2012 2(1), 73-78
     doi.org/10.1002/wcms.81
  4. Izsak, R.; Neese, F.; Klopper, W.
     Robust fitting techniques in the chain of spheres approximation to the Fock exchange: The role of the complementary space
     J. Chem. Phys. 2013 139 , 
     doi.org/10.1063/1.4819264
  5. Neese, F.
     Software update: the ORCA program system, version 4.0
     WIRES Comput. Molec. Sci. 2018 8(1), 1-6
     doi.org/10.1002/wcms.1327
  6. Neese, F.; Wennmohs, F.; Becker, U.; Riplinger, C.
     The ORCA quantum chemistry program package
     J. Chem. Phys. 2020 152(22), 224108
     doi.org/10.1063/5.0004608
  7. Neese, F.
     Software update: The ORCA program system—Version 5.0
     WIRES Comput. Molec. Sci. 2022 12(1), e1606
     doi.org/10.1002/wcms.1606

List of optional additional citations

  1. Neese, F.
     Approximate second-order SCF convergence for spin unrestricted wavefunctions
     Chem. Phys. Lett. 2000 325(1-3), 93-98
     doi.org/10.1016/s0009-2614(00)00662-x

Timings for individual modules:

Sum of individual times          ...       55.518 sec (=   0.925 min)
Startup calculation              ...        2.027 sec (=   0.034 min)   3.7 %
SCF iterations                   ...       53.280 sec (=   0.888 min)  96.0 %
Property calculations            ...        0.211 sec (=   0.004 min)   0.4 %
                             ****ORCA TERMINATED NORMALLY****
TOTAL RUN TIME: 0 days 0 hours 0 minutes 55 seconds 950 msec
